   12819
 i =     5000, E =       355.9711673420
  C        -2.4252136734       -2.9128420103       58.3479627613
  C        -2.3901469548       -1.4895555816       58.4530143923
  C        -1.1983911191       -0.7709587514       58.1254700823
  C        -1.1835355300        0.6617220366       58.2478448976
  C        -2.3662248376        1.3461574020       58.6588996303
  C        -2.3690425418        2.7590490663       58.8227343723
  C        -1.1815996971        3.4931425537       58.5740548174
  C        -1.1750829037        4.8967603494       58.8525961975
  C        -2.3668907834        5.5770847900       59.1977304448
  C        -2.4120771055        7.0729831294       59.2335851983
  C        -1.0921747657        7.7639176281       59.3050362512
  C        -1.0471926552        9.1890345481       59.4166698087
  C        -2.2469702497        9.8820503950       59.7021243506
  C        -2.3159240946       11.3466635583       59.4903755998
  C        -1.0054023716       12.0715690326       59.5324171680
  C        -0.9662738473       13.4885239702       59.6468328329
  C        -2.1978604877       14.2088206573       59.7048487594
  C        -2.2178560406       15.6037172431       59.5526755126
  C        -0.9232734293       16.3381413405       59.4878652507
  C        -0.9854345763       17.5857841056       58.5864558415
  C        -2.1408708424       18.4935336800       59.1280950663
  C        -2.2094943071       19.8207729541       58.3956291309
  C        -0.9155717749       20.5389800609       58.0108961709
  C        -0.9476517432       21.9848958790       58.5629507327
  C        -2.2029468225       22.6971644721       58.1058249986
  C        -2.2375595343       24.1838224841       58.1823688146
  C        -1.0454633526       24.9133443628       58.2682309502
  C        -1.0331776198       26.3656871301       57.9281533109
  C        -2.1910846019       26.9721833719       57.1484722669
  C        -2.2655030745       28.4829013773       57.4111790789
  C        -0.9749294733       29.2498141451       57.0839223074
  C        -1.0368976787       30.6721513050       57.7464743718
  C        -2.2782228529       31.4582839835       57.3339924678
  C        -2.2585803731       32.9612790437       57.7593374440
  C        -0.9461112110       33.6837024802       57.3373240187
  C        -0.9352630800       35.0801221554       57.0522399858
  C        -2.2807632943       35.8458638480       57.0946634275
  C        -2.2520122063       37.3684081210       57.3826966215
  C        -0.9124304389       38.0380168865       57.7709940933
  C        -0.8537536887       39.4168320617       58.1528926726
  C        -2.1426014753       40.2757778085       57.9569076898
  C        -2.0886779463       41.6248697717       58.6927368380
  C        -0.7838207272       42.4440295599       58.5874755779
  C        -0.6870885544       43.4419308758       59.7441584875
  C        -1.8281335795       43.9296819845       60.4094691549
  C        -1.7774722906       45.2273371403       61.2814309088
  C        -0.5174410623       46.1050624313       61.1051238110
  C        -0.5257252977       47.5240112020       61.2263113652
  C        -1.8662858235       48.3117504005       61.3792520620
  C        -1.8697376254       49.6013949337       60.4667225186
  C        -0.6502570381       50.4284542939       61.0194208011
  C        -0.6131621713       51.8375149738       61.0667024808
  C        -1.7774517604       52.5819165427       60.4278539304
  C        -1.8264685872       54.0844991592       60.8618121414
  C        -0.5039052960       54.8153965886       60.5788568777
  C        -0.5693169462       56.2348817320       60.5025778883
  C        -1.8859623466       56.9898537028       60.2843736511
  C        -1.9226280492       58.4864133794       60.6198483528
  C        -0.7380204157       59.2152130782       60.8892719782
  C        -0.7700728511       60.4995378792       61.6880215981
  C        -2.0041439135       61.1392574043       61.9172321081
  C        -2.1128284013       62.5935536410       62.2255762883
  C        -0.8392197354       63.2033189862       62.7015432014
  C        -0.8634081691       64.5455281140       63.1009838264
  C        -2.1399679049       65.3860166412       62.9422629776
  C        -2.2515700113       66.7036652171       63.7429795313
  C        -0.9222748176       67.4600396840       63.6781172023
  C        -0.9287511330       68.8463265732       63.8442061030
  C        -2.2087272961       69.6374855467       63.8954168591
  C        -2.1520695248       71.1675805081       63.9072806128
  C        -0.9414204518       71.6943149447       64.7439026842
  C        -0.8663766310       73.2301835243       64.5989229107
  C        -2.1885187063       73.9400007367       64.7713641567
  C        -2.2119340697       75.3111377324       65.1202914920
  C        -0.9297868118       76.0689328048       65.3235138136
  C        -1.0056006993       77.3574979870       66.1986243807
  C        -2.2241120643       78.2278051107       65.8855732365
  C        -2.2956813498       79.6286309036       66.5315376110
  C        -0.9790370289       80.3841508612       66.3664868165
  C        -1.0250851089       81.7776237639       66.5863023075
  C        -2.3290638682       82.5495164095       66.7337833318
  C        -2.3315617310       83.8964362869       67.2004430606
  C        -1.0276523952       84.6477511371       67.5949704630
  C        -1.0526777899       86.1730538709       67.2936436285
  C        -2.2862503016       86.8312888236       67.0293247550
  C        -2.1768709285       88.1829447351       66.3138766550
  C        -1.0279385503       89.1391822398       66.9046974518
  C        -0.9428157758       90.4141211849       66.0087302154
  C        -2.1604939047       91.0759067548       65.7316670450
  C        -2.2172553172       92.5721519963       65.2999412608
  C        -0.9267211481       93.3467152126       65.6085054226
  C        -0.9225285746       94.8803414619       65.7809979456
  C        -2.1756484918       95.5215975451       65.0776365980
  C        -2.2121226426       97.0876108983       65.3551128772
  C        -0.8902036194       97.7823062870       64.8321214030
  C        -0.9631941698       99.2649641546       65.1378218484
  C        -2.2706105812       99.9822135026       64.9297847530
  C        -2.1530444083      101.4248824368       65.2338050498
  C        -0.9200087411      102.0742148260       64.7106262443
  C        -0.8530793013      103.5854822753       64.7038149170
  C        -2.0086297201      104.3531115120       65.0223933770
  C        -2.0462540866      105.7480489530       64.4558338303
  C        -0.9606000617      106.2013334681       63.4631101011
  C        -0.8341086543      107.7011839624       63.1237100249
  C        -1.9777029330      108.6004983254       63.6147577351
  C        -2.0829661603      109.7467695185       62.6071886471
  C        -0.7968099985      110.4874698816       62.2653923043
  C        -0.7926094529      111.8575212489       62.0282966519
  C        -2.1076315187      112.6168481155       61.9827739411
  C        -2.0712835030      113.9978364273       62.0902697554
  C        -0.7590274480      114.7200090235       62.1535981990
  C        -0.7801776303      116.1201064018       62.0002234745
  C        -2.1086007463      116.8122318820       61.8160025754
  C        -2.0895830345      118.3023465383       61.8563930733
  C        -0.8876174267      118.9750467633       61.7648124935
  C        -0.8738786667      120.3860174006       61.2796051904
  C        -2.1075758158      121.0604815933       60.9974051850
  C        -2.1537661130      122.4614264655       60.8372075594
  C        -0.9273623378      123.1617902558       60.8709055950
  C        -0.9786573870      124.5655520114       60.6872980242
  C        -2.2102313399      125.2618900487       60.5303999969
  C        -2.2259171202      126.6705156663       60.3869830311
  C        -1.0044681644      127.3672729723       60.2945568512
  C        -0.9886453251      128.7876839078       60.2062299123
  C        -2.2144734374      129.5014567366       60.1602376515
  C        -2.2141545217      130.9206250690       60.0220940295
  C        -1.0058797884      131.6402784040       59.8179669757
  C        -1.0305161621      133.0313857531       59.5496075633
  C        -2.2542873435      133.7459718788       59.6343255165
  C        -2.2775205678      135.1483075038       59.4250170385
  C        -1.0441424531      135.9205724388       59.0484691921
  C        -1.0809154703      137.3141453324       58.8182347818
  C        -2.2636672422      138.1372850890       59.2122892178
  C        -2.2418976415      139.5353477646       59.0692571492
  C        -1.1606776275      140.1826480496       58.2493186360
  C        -1.0694981480      141.7102235956       58.3862911904
  C        -2.2104708662      142.4707111233       58.7453927838
  C        -2.3756986056      143.9639533333       58.5133866616
  C        -1.2909197916      144.6692277887       57.7696880868
  C        -1.2996765806      146.0778927838       57.7234161398
  C         0.0215580692       -2.9294333709       57.5138119318
  C         0.0403675632       -1.5227620057       57.6928302536
  C         1.1012596437       -0.6875086699       56.9973895533
  C         1.1202238906        0.7941213686       57.3303275864
  C        -0.0234904404        1.4322653852       57.8893862493
  C        -0.0330541146        2.8529373105       57.9981596470
  C         1.0962271618        3.7293264309       57.4846511039
  C         1.1510040815        5.0282795338       57.9612186906
  C         0.0210454322        5.6495884077       58.6996481240
  C         0.0729812744        7.0369807808       59.0041139924
  C         1.2885551120        7.7254238217       58.8494088039
  C         1.4032952710        9.2097290373       58.8365891168
  C         0.1555051257        9.9327986758       59.2082794504
  C         0.2005613914       11.3570531904       59.3872642666
  C         1.4461047777       12.0621098273       59.3846118640
  C         1.4874837835       13.4721845754       59.5656849724
  C         0.2710383270       14.1957152984       59.6667324954
  C         0.2952353581       15.6975192382       59.7173982071
  C         1.6223955357       16.4035953242       59.5595129637
  C         1.6023260509       17.7891418448       59.0247261103
  C         0.3872547857       18.3370639920       58.2897847793
  C         0.3696677800       19.8516685777       58.4832519593
  C         1.6012502195       20.5716869495       58.5323267345
  C         1.5715214350       21.9701717306       58.3880818008
  C         0.3070323492       22.7435367860       58.1287511613
  C         0.2603921607       24.1525198204       58.0936567381
  C         1.5299765802       24.8538419322       58.5689523715
  C         1.4780431587       26.4159516446       58.3886111538
  C         0.2582038912       27.1056886205       58.1200708959
  C         0.3943089926       28.4767603012       57.4090711714
  C         1.5387904348       29.3232641485       58.1082701362
  C         1.5404450324       30.7152054989       57.9640468600
  C         0.3111759290       31.4491100370       57.3827206998
  C         0.3248591396       32.9417969573       57.8702376116
  C         1.6645743587       33.6452623987       57.4501997680
  C         1.6105559196       35.1930964101       57.7312040944
  C         0.3667551606       35.8723079711       57.1089007559
  C         0.3505670153       37.4262131718       57.1047278237
  C         1.7114611553       38.0020856793       57.6054992045
  C         1.8192825560       39.3989879989       58.2284496040
  C         0.4784192603       40.1943042663       58.1034618108
  C         0.4993709373       41.5856456287       58.4156080476
  C         1.8232994397       42.1717099634       58.9700597201
  C         1.8488938172       43.4587419787       59.5465628334
  C         0.5820755567       44.2629342808       59.7330347076
  C         0.6738298329       45.5051784682       60.3760998217
  C         2.0304129289       46.0915157871       60.7424660931
  C         2.0069660766       47.5272638138       61.1500956265
  C         0.7592807521       48.2974560028       60.9259525271
  C         0.6946657499       49.6953891588       61.0417877237
  C         1.8378715426       50.3714757941       61.8247413897
  C         1.8880106150       51.8893066907       61.5643398971
  C         0.7325585749       52.5828863227       61.1159520186
  C         0.6757890782       54.0809292418       61.1787124393
  C         1.7040189760       54.8405435970       61.9860433121
  C         1.8080588524       56.2459323619       61.3780157729
  C         0.4949300644       57.0274560161       61.2843918966
  C         0.5917002136       58.5103615814       60.8922887917
  C         1.8235611141       59.1612601899       61.1596817851
  C         1.8498026498       60.5499772049       61.7510164489
  C         0.5297955738       61.2961454044       61.7171915928
  C         0.4914523782       62.6050301976       62.2233232256
  C         1.7674785400       63.1807329234       62.7577235433
  C         1.6620760152       64.6379582737       63.1172812865
  C         0.4219486248       65.3227261644       63.2195964124
  C         0.2846852130       66.5872596124       64.1059410514
  C         1.6324666354       67.3823196255       64.1454148780
  C         1.4345429103       68.7229211453       64.8742714146
  C         0.2705054799       69.4639078996       64.5502480733
  C         0.3957375827       70.9787495272       64.3195508582
  C         1.5829532740       71.6106550011       65.0260993983
  C         1.5343870710       73.0769871921       65.3600404609
  C         0.3379992752       73.9038777607       64.8721313656
  C         0.3106580770       75.3894933080       65.2160195895
  C         1.5456804719       75.9407964524       65.9536367189
  C         1.5330785585       77.2278565364       66.5402228868
  C         0.3524396475       78.1564353962       66.0787496408
  C         0.2557925033       79.5551178603       66.7201087232
  C         1.4654664524       80.2056787585       67.0046592178
  C         1.4726421116       81.6968563423       66.9467586321
  C         0.1769003668       82.4153455824       67.3072724701
  C         0.1972523690       83.9250919665       67.0424909673
  C         1.5127093088       84.6388854686       67.0521899692
  C         1.4989930632       86.1606991511       66.8772676300
  C         0.2781022600       86.8862517618       66.9098786022
  C         0.3508892071       88.4111243815       67.2014120963
  C         1.5780646273       89.0536675545       66.5255957426
  C         1.6117691261       90.4596085560       65.9537879651
  C         0.3258902612       91.2048072803       66.0452557555
  C         0.3776204839       92.6190664060       65.4385697112
  C         1.5665193463       93.3747235947       66.1298322762
  C         1.6292908573       94.9131908032       65.9526551198
  C         0.4066232344       95.5658779827       65.2826802614
  C         0.3583428983       97.1090839746       65.4304814976
  C         1.6732576516       97.8642103435       65.1735881524
  C         1.6504067046       99.3632201989       65.5514020387
  C         0.2699984606      100.0611748452       65.5957014932
  C         0.3030508416      101.4053080921       64.8567981619
  C         1.6288470316      102.1735057346       64.8221732822
  C         1.6801126419      103.5514425785       64.5188742816
  C         0.3890241057      104.1463206770       63.9492350652
  C         0.4301257465      105.7004562516       63.9722458090
  C         1.6655934582      106.2637587916       63.2182946219
  C         1.7304236210      107.7419332493       63.0485972399
  C         0.3882408003      108.3600752475       62.8162959137
  C         0.4906937007      109.8432251304       62.7058572826
  C         1.7247073244      110.5402847168       62.6594577913
  C         1.7189301580      111.9395579226       62.4434302710
  C         0.4855276929      112.6195527889       62.2391186377
  C         0.4814014451      114.0320336939       62.2092794481
  C         1.7035072045      114.7386437568       62.1715960482
  C         1.6833425351      116.1378438554       61.9868608088
  C         0.4477950235      116.8285099916       61.9039409575
  C         0.4154608111      118.2348190737       61.7056445024
  C         1.6316349097      118.9348764332       61.5680743285
  C         1.5903591963      120.3421888827       61.3685797548
  C         0.3555653410      121.0587716324       61.2065385878
  C         0.3198436387      122.4571803574       61.0206060464
  C         1.5471992795      123.1490867473       61.0650038266
  C         1.5250393465      124.6351946090       61.0713615041
  C         0.2313780462      125.2726582200       60.6610657978
  C         0.2188361592      126.6450759886       60.3389894492
  C         1.5279331491      127.3165557924       60.0886476967
  C         1.5240692503      128.8200951740       60.1316258333
  C         0.3180271580      129.5182999555       60.2460865576
  C         0.2320852686      130.9641932571       59.8745372671
  C         1.4367598108      131.6851176502       59.6850292021
  C         1.4009973180      133.0448084936       59.3377221342
  C         0.1676996915      133.7080518741       59.2004008685
  C         0.1411419986      135.0878893749       58.6355757685
  C         1.3069692314      135.8088734828       58.3010416762
  C         1.2603966429      137.3372407831       58.0669326178
  C        -0.1256495649      137.8825753660       57.7379657808
  C        -0.1880731100      139.4160760417       57.5575197232
  C         0.9763838562      140.0597688871       56.7468472455
  C         0.9994256686      141.6167192321       56.9742903729
  C        -0.0544212861      142.4052111054       57.5290514885
  C         0.0595089368      143.9508257191       57.7005250560
  C         1.0473308822      144.5742187217       56.6193878876
  C         0.9780588554      146.1664397376       56.4728348489
  C         2.3880610698       -2.8898872046       56.2746739317
  C         2.2654656630       -1.3646494107       56.5406104375
  C         3.5674267855       -0.6229630631       56.9276264078
  C         3.6186414119        0.8570354399       56.4003938580
  C         2.1969158668        1.6083528735       56.5433370565
  C         2.3661332911        3.1476453922       56.7807814579
  C         3.7390995486        3.6284218916       57.2757538182
  C         3.8356349215        4.9925110808       57.9334077632
  C         2.4765394488        5.7539327162       57.8725472527
  C         2.5038470793        7.0749260668       58.2652127247
  C         3.8187647625        7.6963661357       58.6122702430
  C         3.8162614618        8.9977985284       59.3997793827
  C         2.6324260163        9.8555739835       58.9555148226
  C         2.7263524995       11.3328904521       59.1515099700
  C         3.9471408459       11.9897548338       59.3709827864
  C         3.9566457099       13.4565190357       59.5608172870
  C         2.7427046780       14.1789275127       59.5638301796
  C         2.8096367632       15.6718753222       59.5540925153
  C         4.1358076181       16.2422218770       59.1197571877
  C         4.0990740041       17.6505865115       58.6405755861
  C         2.9071029002       18.3807127675       58.6140378362
  C         2.9478497437       19.9027258838       58.6175954536
  C         4.1464713254       20.5881629202       58.2494088775
  C         4.0360046210       21.9954236971       57.6598030536
  C         2.8070040587       22.6681963775       57.9213677541
  C         2.7936800532       24.1801474817       57.9762606607
  C         4.0041232156       24.9036595713       57.8793643642
  C         4.0339114279       26.2810701211       58.6389860039
  C         2.8598054906       27.1292924437       58.0888916305
  C         2.8086500670       28.5856556355       58.5602798729
  C         4.0322259602       29.2399590467       58.8581091583
  C         4.1333514729       30.6380605948       58.2035221301
  C         2.8714687210       31.4231824058       57.8829360562
  C         2.8759688124       32.9166675659       58.1249509072
  C         4.0706796732       33.6547197280       58.3711879044
  C         4.1240994416       35.2468815728       58.3511251502
  C         3.0485538918       35.7967109566       57.3313934049
  C         2.9943686834       37.3517330317       57.0650346657
  C         4.3365273944       38.0711220194       57.4156674388
  C         4.3861493259       39.4645650702       57.6080003466
  C         3.0544908319       40.2538393172       57.6739487666
  C         3.1518422948       41.5439597200       58.5192554344
  C         4.3662565449       42.2794253161       58.4988002657
  C         4.2805570032       43.7950843028       58.7226878546
  C         3.1220229509       44.2836915957       59.3714907670
  C         3.2232803919       45.5291599469       60.2404602918
  C         4.4144670392       46.4384758284       60.1319993209
  C         4.4515381162       47.6794599870       60.8054086153
  C         3.2658545022       48.2154916353       61.5853751709
  C         3.1919866180       49.7407514775       61.4986683226
  C         4.3921103472       50.4510614328       61.6825807933
  C         4.3419633534       51.7645979568       62.4926802121
  C         3.0786192310       52.6264660822       62.1968450632
  C         3.0318063915       54.0452065170       62.1643547400
  C         4.3319681033       54.7224825495       61.7760515314
  C         4.3421231613       56.0962893782       61.4292210119
  C         3.1106654603       56.9439877566       61.2626456625
  C         3.1212503030       58.3584269582       61.2860985256
  C         4.3449977521       59.0674866453       61.7953653747
  C         4.2893343084       60.4271967179       62.2205432921
  C         3.0485016392       61.1382621945       62.2469329941
  C         2.9985921445       62.4641672491       62.7622121354
  C         4.1871133317       63.0963149629       63.2197921142
  C         4.1048876170       64.4069214998       63.7763810958
  C         2.8110166805       65.1475729888       63.9683795123
  C         2.7395877241       66.4106440589       64.6443017277
  C         3.9802786714       67.0584781750       65.3186662463
  C         3.9571891606       68.6561075533       65.5609635811
  C         2.7032954336       69.4427877359       65.1199179548
  C         2.7394028913       70.8495088993       65.2258918068
  C         4.0129843175       71.5339134847       65.5128190174
  C         4.0389041933       72.9053446845       65.8184771445
  C         2.7359459069       73.7126476305       65.7637684094
  C         2.8785274726       75.2494056556       65.6104526198
  C         4.1043335522       75.7366589528       66.3940792530
  C         4.1539611454       77.1478521497       67.0105835886
  C         2.7681192622       77.9533228581       67.1499757928
  C         2.7641208592       79.4454807211       66.6958628921
  C         3.9481272525       80.1601049714       66.4465560050
  C         3.9306487783       81.6893011558       66.5485814990
  C         2.6086581975       82.4388320435       66.2571705361
  C         2.6710667130       83.9321691584       66.6637987995
  C         3.9020384243       84.6650994120       66.0561011093
  C         3.9774746402       86.1574850364       66.4046934808
  C         2.8660326811       86.8646485284       67.1750659906
  C         2.9127253619       88.4554436411       66.9634711667
  C         3.9984338466       89.0267268435       66.0388084642
  C         4.1416143117       90.5125933484       66.0303901092
  C         2.8309628267       91.1913753469       65.8079400925
  C         2.8807876846       92.6995262836       65.7791914092
  C         4.0652565620       93.4459497141       65.5170143327
  C         4.0768067834       94.8702056061       65.5107897897
  C         2.8368421254       95.6328018576       65.8595509519
  C         2.9031530869       97.1345508754       65.7228912111
  C         4.1176599986       97.8055534374       65.5433483987
  C         4.1721576760       99.2430495467       65.0876418250
  C         2.8800605312      100.0022036062       65.2380279895
  C         2.8388766893      101.3167073123       64.4409163647
  C         4.1565265901      102.0917421701       64.5307475153
  C         4.1961746043      103.4679957641       63.8692407157
  C         2.9321002280      104.2492943695       64.0755888024
  C         2.8732370794      105.5894708170       63.4009053726
  C         4.1611884045      106.3885711864       63.4661689227
  C         4.1932467713      107.7739867944       63.1984115537
  C         2.9605429141      108.4511342460       62.9978984177
  C         2.9561559063      109.8487210182       62.8024867246
  C         4.1898598847      110.5451130612       62.7219060975
  C         4.1818104001      111.9438202792       62.5192312102
  C         2.9478904208      112.6410373236       62.4172270297
  C         2.9370207783      114.0419445568       62.2440347825
  C         4.1614708436      114.7408370305       62.1431919064
  C         4.1398733169      116.1421705685       61.9540924647
  C         2.9024891908      116.8393232330       61.8680650968
  C         2.8723297797      118.2386348235       61.6612847707
  C         4.0959708964      118.9396707826       61.5859849590
  C         4.0652351258      120.3437827140       61.4322729519
  C         2.8196679596      121.0336629768       61.3101466913
  C         2.7873386192      122.4360779198       61.1732260920
  C         4.0221055184      123.1311500686       61.2055837150
  C         3.9977155226      124.5317575978       61.0964107360
  C         2.7316094529      125.3154276542       61.0408845442
  C         2.7457558712      126.6781690738       60.3918310666
  C         3.9626116231      127.5481008233       60.7214798771
  C         4.0709085719      128.8051074403       59.8085128418
  C         2.7344702605      129.5222084760       59.5068533219
  C         2.7550655815      131.0079272839       59.8631110608
  C         3.9536035388      131.7065033936       59.7168690026
  C         3.8475594762      133.1025043084       59.2002941875
  C         2.6047828090      133.7558699439       59.0924154599
  C         2.5915910431      135.2157957272       58.8058215093
  C         3.7812866774      135.9093782748       58.5789827916
  C         3.7636117059      137.1734898826       57.6887606640
  C         2.4445233482      138.0191579544       57.7387806066
  C         2.3812552380      139.2576993039       56.7851781559
  C         3.6663710529      140.2074745714       56.8334251408
  C         3.5337629572      141.6477261488       57.3999975971
  C         2.3236699972      142.3536622490       57.2229966262
  C         2.3371571143      143.8781219194       57.0234828982
  C         3.5972518457      144.5891288134       56.7587541080
  C         3.5860459225      146.1202620844       56.8910325602
  C         4.8053617126       -2.8987084546       56.8672531174
  C         4.8600230792       -1.4150446528       56.6135999600
  C         6.1370632912       -0.6757327478       56.0861097367
  C         6.2618227689        0.7577083781       56.6367661873
  C         4.9596558040        1.5032953377       57.0596760518
  C         4.9940981713        2.9861387901       56.7503725937
  C         6.1963777499        3.7245758662       56.5683087648
  C         6.1666361480        5.2770355777       56.5319171268
  C         5.0053776909        5.8541054262       57.3869310592
  C         4.9537356091        7.3669084889       57.6513984111
  C         6.3323289508        7.7705137099       58.2248907079
  C         6.3275339112        9.3133311417       58.6043627406
  C         5.1441710318        9.7977457425       59.4777372281
  C         5.2127134975       11.2002672587       59.7145109728
  C         6.5390497267       11.9163766137       59.6644023950
  C         6.5032404301       13.3628536174       59.3019943321
  C         5.3045548915       14.0629561311       59.2378668122
  C         5.3471395908       15.5407829796       59.1951045860
  C         6.5816494526       16.2488581240       59.0575304393
  C         6.6026429666       17.7385236925       58.8952556772
  C         5.4010620357       18.4240966950       58.6747054081
  C         5.4184822408       19.7804369171       57.9069384352
  C         6.7005514172       20.6127555704       58.1150794509
  C         6.7511098272       21.9627698880       57.3297365881
  C         5.3349279340       22.7338781128       57.1133486739
  C         5.3710965317       24.3279415735       57.4174867592
  C         6.6043149486       24.8453424499       58.2260423871
  C         6.5488677137       26.1310822191       59.0931491954
  C         5.4066975729       27.0627097160       58.5457785240
  C         5.3358051823       28.4574134431       59.2548969629
  C         6.6384650422       29.2164805237       58.9826229958
  C         6.5274201778       30.7656626362       59.0534299584
  C         5.3577559666       31.3419790685       58.2014266245
  C         5.3468135966       32.8976382797       57.9069758191
  C         6.6551162005       33.6370325729       58.3753735317
  C         6.7279429089       35.0631259961       57.7489866365
  C         5.5143640103       35.9254805849       58.0985283081
  C         5.5869172342       37.2993667040       57.8157269876
  C         6.8411125480       38.0059522777       57.4687162577
  C         6.8785319639       39.4614802536       57.8510864850