   13825
 i =     7501, E =       452.6667991374
  C        -1.7270068978       -2.0320514498       48.9182970586
  C        -1.7276778689       -0.6177562404       49.0079691066
  C        -0.5195823963        0.1108174289       48.9038001605
  C        -0.5387372750        1.5283939723       48.9811857711
  C        -1.7621111955        2.2264997644       49.1155197719
  C        -1.7991170904        3.6452131865       49.1091906811
  C        -0.5906938775        4.3765888989       49.0683816048
  C        -0.6194056898        5.7980262548       49.1067874305
  C        -1.8607808575        6.4978481039       49.0720211991
  C        -1.8556198442        7.9343659565       49.1568518898
  C        -0.6234029680        8.6456252908       49.2406407351
  C        -0.6028770791       10.0716160037       49.2730271149
  C        -1.8082151404       10.8036468062       49.2662337515
  C        -1.8034822726       12.2233391277       49.1873350745
  C        -0.5795519473       12.9300616567       49.1253274928
  C        -0.5561204692       14.4161383056       48.9026211418
  C        -1.8721592308       15.1718573922       48.9029393794
  C        -1.8648380056       16.6119377216       49.4655986745
  C        -0.5929057623       17.3972510557       48.9852510342
  C        -0.6717761203       18.8974400197       49.4089699494
  C        -1.8942439197       19.5760038792       49.2033849723
  C        -1.8698819068       21.0810406472       48.9336886234
  C        -0.6347674637       21.8451306739       49.3082666471
  C        -0.6536148997       23.2637255477       49.4996961649
  C        -1.8727638018       23.9904511712       49.4084619503
  C        -1.9151158241       25.3976222731       49.6399442839
  C        -0.7015343763       26.0946465293       49.8508081257
  C        -0.7129643393       27.5082644798       49.9797182589
  C        -1.9423003020       28.2199902592       49.9631618826
  C        -1.9444011015       29.6346072754       50.0799916098
  C        -0.7194673889       30.3380366471       50.2031327326
  C        -0.7228182218       31.7531332231       50.3056427026
  C        -1.9471396304       32.4685658957       50.2690259579
  C        -1.9499138640       33.8861985035       50.3320978119
  C        -0.7278372947       34.5858547842       50.4673505307
  C        -0.7307278480       36.0024997599       50.5017513753
  C        -1.9450583039       36.7337858006       50.3334141072
  C        -1.9169224727       38.2335091378       50.2189675923
  C        -0.7195995973       38.9166406746       50.4490927227
  C        -0.8209159339       40.3250637777       51.0719961311
  C        -2.0737998745       41.0899033475       50.5810322951
  C        -1.9068585123       42.2740702995       49.6004408076
  C        -0.6099880428       43.0464792384       49.8338436679
  C        -0.6202949134       44.4901681462       50.2367358607
  C        -1.8487741598       45.3143188297       49.9161648419
  C        -1.8922212623       46.7226312156       50.1316404313
  C        -0.6974609016       47.3428624716       50.8129886316
  C        -0.7447008058       48.6811694869       51.2673033618
  C        -1.9959170995       49.5121698309       51.0761752998
  C        -1.9840135330       50.9224745886       51.2980971701
  C        -0.6480588933       51.6214302056       51.4894803260
  C        -0.7341832436       53.0200233773       52.0173482421
  C        -2.0210569423       53.7846359626       51.9972690350
  C        -2.0207934136       55.1892200591       52.0359298314
  C        -0.7158130579       55.9806324875       52.0890445716
  C        -0.7445352691       57.4220819273       51.7270882199
  C        -1.9817537155       58.0857935140       51.5593734314
  C        -1.9568913804       59.4973992435       51.4209540160
  C        -0.6732202516       60.3096076863       51.3780528393
  C        -0.7298259387       61.7723321576       51.8318877540
  C        -1.9288148201       62.5649006905       51.3080376893
  C        -1.9547545146       63.9572018919       51.9495433801
  C        -0.7160078255       64.7396643765       51.8074065632
  C        -0.7132429690       66.1289796350       51.6523979043
  C        -2.0484671748       66.8802124145       51.5983942495
  C        -1.9442822776       68.4740566455       51.8657563371
  C        -0.6614358465       69.1091726516       51.2803329631
  C        -0.5990739958       70.7005689849       51.2761801832
  C        -1.9734056722       71.4311033771       51.4354112011
  C        -1.9527433211       72.9101524392       51.8414154598
  C        -0.8535149742       73.4368362147       52.7803242411
  C        -0.7445151234       75.0111010828       52.7166301965
  C        -1.9534002993       75.7621593577       52.6463251547
  C        -1.9038012429       77.1304814268       51.8731724297
  C        -0.6544241204       78.0017423381       52.1863126722
  C        -0.6742396445       79.3713225393       51.7173792921
  C        -1.9124303193       80.0823870075       51.2404816859
  C        -1.8993614257       81.4483624269       50.8391406610
  C        -0.6574485802       82.1244440433       50.6833488653
  C        -0.6336669113       83.5050619655       50.3422937009
  C        -1.8598159571       84.1962357995       50.1843351661
  C        -1.8449056852       85.5836796706       49.9120452739
  C        -0.6091861747       86.2748922367       49.7874215209
  C        -0.5965115687       87.6744432060       49.6095692009
  C        -1.8273919454       88.3755605805       49.5434040598
  C        -1.8215404130       89.7801039368       49.4102138432
  C        -0.5833746140       90.4736710304       49.3465405715
  C        -0.5816139716       91.8798468563       49.2246457633
  C        -1.8205571826       92.5766948001       49.1656149668
  C        -1.8305179266       93.9775980712       49.0208980547
  C        -0.5953952528       94.6707557635       48.9403895669
  C        -0.6236831331       96.0683923919       48.7689269902
  C        -1.8785366833       96.7431704982       48.6254532561
  C        -1.9144352993       98.1179808539       48.3016838310
  C        -0.6522609800       98.7918509415       47.9359485819
  C        -0.6690602826      100.1532721402       47.6481963160
  C        -1.9625355876      100.9010386669       47.7392709809
  C        -1.8699212762      102.4031819944       47.7663201062
  C        -0.6643486553      103.1241422077       47.7462377636
  C        -0.5655202722      104.6774504902       47.5554097269
  C        -1.8638387095      105.2923292676       47.0280265173
  C        -1.8535968364      106.6927545451       46.5230034381
  C        -0.6088017626      107.4998386390       46.8178359283
  C        -0.6269542627      108.9115032185       46.7352695470
  C        -1.8701470313      109.6313851859       46.1960428029
  C        -1.8790105185      111.1674661822       46.1916132877
  C        -0.5409050308      111.9070093188       46.3928421124
  C        -0.5137322204      113.3080244051       46.5539049406
  C        -1.8398867554      114.0631184511       46.6327933588
  C        -1.7525910322      115.4737532673       47.2214588191
  C        -0.5379031457      116.1746526565       46.5635656953
  C        -0.4853052218      117.6197829920       46.9968163183
  C        -1.7448799342      118.3298346301       47.4695489073
  C        -1.7954124778      119.8073267532       46.9232134896
  C        -0.4492608656      120.5199320277       47.1244677478
  C        -0.4608826208      121.9811263718       46.6795008305
  C        -1.6700535597      122.7654046490       47.1458717404
  C        -1.6327716515      124.2137546796       46.8154800091
  C        -0.4381782832      124.9201906571       47.0470336604
  C        -0.4834176541      126.4309466390       47.2320486900
  C        -1.6999492440      127.1200999522       47.0448454733
  C        -1.6513719271      128.6095240558       46.6482757627
  C        -0.3953307811      129.3676920613       47.1207028538
  C        -0.4600684622      130.8798083441       46.8634029103
  C        -1.5926917193      131.5364259669       47.6774789282
  C        -1.5945137481      132.9500860646       47.7401431842
  C        -0.3914040842      133.7642013643       47.3694267209
  C        -0.3664298153      135.2289088603       47.7839785944
  C        -1.6598518267      135.9323887140       47.3056033122
  C        -1.6609849729      137.3505399976       47.2582019497
  C        -0.3475100493      138.1420452986       47.3150626306
  C        -0.4240421778      139.6379598603       47.6639162308
  C        -1.6880096211      140.1021404243       48.4310854800
  C        -1.7186053914      141.5766332521       48.8500842872
  C        -0.4735640303      142.3681989853       48.5461499074
  C        -0.4669250250      143.7628590251       48.6789970937
  C        -1.7126353110      144.4925304414       49.1259810446
  C        -1.7127937845      145.8927432408       49.0792487833
  C        -0.5043875911      146.6199443052       48.5353015280
  C        -0.5038325241      148.1040606899       48.6828338926
  C         0.7146997293       -1.9904593391       48.5950274931
  C         0.7060676748       -0.5814292892       48.7430452101
  C         1.9248747064        0.1361028814       48.7577252806
  C         1.8995737270        1.5505450953       48.8819670182
  C         0.6702721929        2.2541516110       48.9537895515
  C         0.6431075139        3.6732347400       49.0331824174
  C         1.8580864402        4.3907886890       49.0872382076
  C         1.8375780037        5.8076783285       49.1823406919
  C         0.6047680367        6.5142305221       49.1804251384
  C         0.6016178494        7.9333793785       49.2550893766
  C         1.8253647832        8.6459538617       49.3562829207
  C         1.8305862847       10.0666705105       49.4161792263
  C         0.6175781049       10.7858201768       49.3372517715
  C         0.6285156457       12.2097779906       49.3012866948
  C         1.8509811451       12.9270632323       49.4374754217
  C         1.8830477431       14.3539033829       49.3822303494
  C         0.6498227805       15.1133684631       49.0593091608
  C         0.6700273056       16.6224268078       49.4921281848
  C         1.9261909320       17.3662511748       49.0651724466
  C         1.8733961157       18.9257923031       49.1014846968
  C         0.5975301422       19.7021470846       49.3423039168
  C         0.5872222447       21.1321091346       49.4149214727
  C         1.7961031760       21.8459808946       49.5877479377
  C         1.7719906289       23.2567014947       49.7520730348
  C         0.5472532954       23.9674080623       49.7317799081
  C         0.5270694564       25.3820960440       49.8700546133
  C         1.7455184982       26.0907043839       49.9998073367
  C         1.7401524216       27.5058276722       50.0995032956
  C         0.5113381642       28.2137620255       50.1000451476
  C         0.5087335975       29.6277365433       50.2091825959
  C         1.7352469655       30.3323092824       50.3151296379
  C         1.7278264822       31.7431423876       50.4510127907
  C         0.5004124605       32.4547307663       50.4406904638
  C         0.4960186136       33.8693471250       50.5434270438
  C         1.7210762977       34.5655167926       50.6989064546
  C         1.7298430823       35.9790561274       50.7709917585
  C         0.4994127609       36.6918216293       50.6884584660
  C         0.5005712696       38.1066953278       50.7598876844
  C         1.7715043106       38.8915799976       50.7885146225
  C         1.7165996304       40.3010840654       51.4543838081
  C         0.4984131323       41.0946011934       50.9676296023
  C         0.6537743544       42.1853191081       49.8913567781
  C         1.9464880105       42.9954689467       50.0454246068
  C         1.9167278315       44.3610591977       50.7342986295
  C         0.5710940298       45.1301464801       50.5783110486
  C         0.6456497901       46.6861112301       50.4434708025
  C         1.8441568023       47.1856295700       51.2832658773
  C         1.7918070157       48.7152159072       51.5237933602
  C         0.5603312342       49.4037710947       51.6006069252
  C         0.5723637831       50.9168222110       51.6045958737
  C         1.8146442941       51.5595148723       52.2957447323
  C         1.7805709645       53.0953085521       52.2896247642
  C         0.5460159787       53.7900124067       52.2593259796
  C         0.5086031758       55.3044061126       52.1423907477
  C         1.8099773057       56.0113925035       51.7902579457
  C         1.8046630532       57.4093972060       51.6188762087
  C         0.4833914170       58.1432878696       51.6708768718
  C         0.5519157748       59.6273927637       51.4695903954
  C         1.7766562845       60.3341273497       52.1283734147
  C         1.7988710434       61.8938488388       51.8978932574
  C         0.4188592853       62.4974339750       52.2644091343
  C         0.4410591050       64.0396914234       52.5004972984
  C         1.7947669315       64.7236415255       52.2102503291
  C         1.8291495206       66.1184380123       51.9500490258
  C         0.5113549048       66.9340550291       52.1146304603
  C         0.5337767727       68.3457027810       51.4643622216
  C         1.9003543693       69.0624762941       51.5701991585
  C         1.7800056727       70.3861685471       52.4152244367
  C         0.5042826304       71.2300666072       52.2156355718
  C         0.5488506999       72.6823046172       52.7679193390
  C         1.7760843626       73.3987568767       52.1339058564
  C         1.8891210176       74.9045304698       52.3894874866
  C         0.5417687712       75.6369924092       52.1921302248
  C         0.6795321847       77.1737655945       52.3645529062
  C         1.7199447550       77.7953939876       51.3596625566
  C         1.8975266578       79.3502291762       51.7005769002
  C         0.6145825667       80.0141635922       51.2055999751
  C         0.6150141707       81.3497771734       50.7638933269
  C         1.9046959715       82.1429082914       50.7278765925
  C         1.8418532951       83.5148761169       50.1793720455
  C         0.6029429688       84.1918466322       50.1151608444
  C         0.6196947846       85.5755469827       49.8464042332
  C         1.8621246560       86.2590232141       49.7056836721
  C         1.8759833256       87.6600927088       49.5644978131
  C         0.6433209461       88.3647497136       49.5232703164
  C         0.6503451057       89.7701847791       49.3994747193
  C         1.8907802805       90.4601418141       49.3389520866
  C         1.8938526216       91.8683370372       49.2249855082
  C         0.6577638918       92.5744526741       49.1635145500
  C         0.6573002980       93.9819502374       49.0291343372
  C         1.9116725830       94.6626953900       48.9512314681
  C         1.9329719444       96.0619667715       48.7882892680
  C         0.6511574272       96.8471307927       48.8123889386
  C         0.6467536805       98.1742652347       48.4412312382
  C         1.9519982247       98.7916493363       48.0032165284
  C         1.9314519688      100.1476616883       47.6845565470
  C         0.6151770216      100.9051646196       48.0398182529
  C         0.6005002124      102.3239735419       47.3944803649
  C         1.8403217703      103.1153150284       47.8026232879
  C         1.9009560807      104.5573088102       47.2993461932
  C         0.7342868687      105.2454464792       46.8872081085
  C         0.7181554520      106.7633704670       46.4905610915
  C         2.0471134179      107.4982906683       46.8452551073
  C         1.9185696865      108.9785506185       47.2390273283
  C         0.6967547602      109.6837866184       46.5529625866
  C         0.5575383770      111.1323042419       47.1394695956
  C         1.9449678257      111.8575780355       47.3039231577
  C         1.9647037688      113.2953469493       46.9663487316
  C         0.6782016045      113.9947977326       47.2788913134
  C         0.7592060191      115.4695114623       46.9328569116
  C         2.0571532499      116.2536670197       47.1700307662
  C         1.9879922585      117.6798019016       46.5622471384
  C         0.7627746280      118.3600621850       46.7288867865
  C         0.7850604713      119.8309213766       47.0975517000
  C         2.1565530320      120.5352773340       47.0293211793
  C         2.0598024911      122.0376849877       46.6869843498
  C         0.8146044613      122.6929965447       47.1307472216
  C         0.8047523515      124.1806929338       47.5590187452
  C         2.0526331577      124.9660106571       47.0786205593
  C         2.0963319719      126.4578267091       47.5276359858
  C         0.8316332607      127.1602943480       47.0392233698
  C         0.8059971599      128.6577610272       47.1383254725
  C         2.0922237918      129.3318587636       46.7174497197
  C         2.0733138134      130.8186670187       46.5063314657
  C         0.9177913904      131.5700369645       47.1805987655
  C         0.8585367806      133.1041027612       46.7745820607
  C         2.2175954293      133.7867821309       47.1475380675
  C         2.1586999380      135.3011163434       46.8939561447
  C         0.8938792057      135.9714031849       47.3405999416
  C         0.8901469400      137.4539423923       47.3003863450
  C         2.1923086902      138.1240735156       47.6655197337
  C         2.0670248811      139.3001277630       48.6444977753
  C         0.8507121491      140.1858873913       48.3263456780
  C         0.8382560164      141.6175712630       48.7272826796
  C         2.0679139811      142.2885833240       48.8412105251
  C         2.0555915024      143.7336802242       48.2620593177
  C         0.8615720422      144.5194208285       48.8958925333
  C         0.7077028637      145.9501055067       48.3566637435
  C         1.9604116589      146.7216361280       48.2809023712
  C         1.9465918147      148.1410373113       48.3853620276
  C         3.1701534195       -1.9665536440       48.4191687955
  C         3.1584405638       -0.5611784150       48.6402255520
  C         4.3820163391        0.1474782311       48.6994134187
  C         4.3392010379        1.5594619851       48.9148768665
  C         3.1112435976        2.2671605363       48.9503314559
  C         3.0878659465        3.6830023335       49.0674902146
  C         4.3018364938        4.3963528056       49.1682033676
  C         4.2853585883        5.8106548915       49.2959023522
  C         3.0573176717        6.5189369920       49.2883002815
  C         3.0495545720        7.9343741195       49.3938075322
  C         4.2671356189        8.6419592833       49.5448412366
  C         4.2621163444       10.0583974590       49.6374722818
  C         3.0462809341       10.7784909815       49.5531240092
  C         3.0462702313       12.2016005239       49.5990905175
  C         4.2445708657       12.9174366406       49.7935381925
  C         4.2710544133       14.3484093809       49.7689476547
  C         3.0902101308       15.0838460792       49.5119449398
  C         3.1064605592       16.6029700113       49.2786337233
  C         4.2979242750       17.3791740579       49.8792727466
  C         4.3636443652       18.8780008603       49.4397625147
  C         3.0581186470       19.6500710909       49.2872962782
  C         3.0145655104       21.1234958235       49.6297856396
  C         4.2010921589       21.8228330740       49.9355730092
  C         4.1902568355       23.2467721799       50.0421352561
  C         2.9800622963       23.9655286369       49.9212215909
  C         2.9705690913       25.3800594316       50.0251543752
  C         4.1902956053       26.0868711526       50.1425573513
  C         4.1917420088       27.5032686894       50.1845970190
  C         2.9660230315       28.2135946624       50.1835325382
  C         2.9673781094       29.6281902296       50.2797404053
  C         4.1980202769       30.3353490669       50.3398493872
  C         4.1830222085       31.7456309693       50.5176580368
  C         2.9510645618       32.4438899567       50.5875659051
  C         2.9437436618       33.8524384915       50.7374344990
  C         4.1613240940       34.5480774113       50.9314539746
  C         4.1659242699       35.9546615592       51.0835786326
  C         2.9613156064       36.6832482422       50.9032941018
  C         2.9813611063       38.1895044112       50.8145163821
  C         4.2578816179       38.8632329672       51.2285434325
  C         4.2672713258       40.2800956889       51.7562381609
  C         3.0286487825       41.0836996961       51.3675435192
  C         3.1918180371       42.1381683217       50.2792799516
  C         4.5143399742       43.0165711874       50.3960704881
  C         4.4806011768       44.5458532406       50.7893631177
  C         3.1766331717       45.2389737080       50.4211102692
  C         3.1514888653       46.6379477207       50.6608651012
  C         4.4234738238       47.3431262653       51.1265567394
  C         4.3800026349       48.7036561781       51.5281633457
  C         3.1006435904       49.5155373706       51.1899746715
  C         3.1191397306       50.9611320737       51.7557911668
  C         4.4141211949       51.7161137125       51.9420640273
  C         4.4154433406       53.1137912476       51.9866342685
  C         3.0513497490       53.8112962775       51.7278328872
  C         3.0964490841       55.2933659196       52.2411083172
  C         4.3472290195       56.0405961600       51.7462937692
  C         4.3970502559       57.5124212982       52.2304883324
  C         3.0621878489       58.2092222935       51.9270698812
  C         3.1252723371       59.7059480840       51.6459161236
  C         4.3495347274       60.4083402556       52.3248738843
  C         4.3175435678       61.7806715797       52.6742907290
  C         3.0145343649       62.5687585928       52.6024018828
  C         3.0100754216       63.9766492488       52.7586689661
  C         4.3036464489       64.7890891544       53.0204971686
  C         4.4017245011       66.0630859075       52.1026557496
  C         3.0995367732       66.8749212884       52.2327912766
  C         3.1236582288       68.2810881800       52.1707348061
  C         4.4338461600       69.0659349297       52.2472668643
  C         4.3771242465       70.5330459483       51.7800359446
  C         3.0974061062       71.2333605993       52.3279958371
  C         3.0832724191       72.6369825026       52.2758967776
  C         4.3376890592       73.3755806400       51.8910085547
  C         4.3230812418       74.7569863300       51.2757195639
  C         3.0563223744       75.5523337359       51.5904022497
  C         3.0780584552       77.0192549570       51.1070196757
  C         4.3692538076       77.8110643081       51.4725777055
  C         4.4036537839       79.2890077870       51.1283177505
  C         3.2089890326       80.0151865054       51.2358512886
  C         3.1231041005       81.4490885709       50.7968500228
  C         4.3394789055       81.9973700528       50.0768055174
  C         4.3130202161       83.3390844745       49.7252773049
  C         3.0686777816       84.1622449739       49.8745978815
  C         3.0939583433       85.5533078108       49.7082657313
  C         4.3514659260       86.2176191506       49.6027830037
  C         4.3554028427       87.6300455548       49.5210155527
  C         3.1206982476       88.3425090119       49.4876466889
  C         3.1249697384       89.7520986135       49.3901231592
  C         4.3651927161       90.4435668453       49.3512575559
  C         4.3703482059       91.8530721107       49.2512464594
  C         3.1365331331       92.5563529451       49.1729019672
  C         3.1462645190       93.9603170049       49.0363492306
  C         4.3914512814       94.6508603185       49.0029243826
  C         4.4145795210       96.0494023560       48.8394246200
  C         3.1914875597       96.7301277856       48.6749453487
  C         3.2166592868       98.1142157305       48.4042755210
  C         4.4286275667       98.8432970462       48.4742272761
  C         4.4009806868      100.3347600967       48.4026030119
  C         3.2223837090      100.9776983630       47.6378708191
  C         3.0571907024      102.4587139490       48.0152908190
  C         4.3246515859      103.2192419326       47.9327917428
  C         4.2704862702      104.6907852730       48.1225172589
  C         3.0973811305      105.3758173411       47.7476586623
  C         3.1817847707      106.8434348610       47.3676719043
  C         4.3374009542      107.6348359168       48.0272871290
  C         4.4533889415      109.0615687914       47.5048169533
  C         3.2533541130      109.7721310637       46.9277109961
  C         3.1847815907      111.2394086453       47.4205211961
  C         4.4917604265      112.0875581783       47.3968062656
  C         4.4681575411      113.2347752797       46.3775776379
  C         3.1384827358      114.0039156319       46.2496834270
  C         3.3028159664      115.4642569141       46.7215954806
  C         4.6372737567      116.2444936112       46.5369476765
  C         4.3866723000      117.5256217011       45.6621255957
  C         3.3149559165      118.3647969960       46.3899287677
  C         3.2029068065      119.8481048088       46.0569276737
  C         4.5537306803      120.5828063796       46.1656572762
  C         4.5410645811      122.0046931827       46.3721335252
  C         3.2197080644      122.7647315489       46.4442241305
  C         3.2015853296      124.2835537628       46.6391512471
  C         4.5229137029      125.0106811959       46.9234145825
  C         4.5078224652      126.4871124658       46.3542113418
  C         3.3560929040      127.2218754311       47.0454141592
  C         3.4069214743      128.7370251177       47.1882450452
  C         4.6439984002      129.3410721568       46.4777413459
  C         4.5852721498      130.7864051426       46.0611155998
  C         3.2728561131      131.5204485591       46.2631398357
  C         3.3743398533      133.0393369954       46.4239463267
  C         4.6227097731      133.6909762417       46.3912444041
  C         4.6814488786      135.0987190364       46.9692328021
  C         3.4014426251      135.9673421727       46.9106429959
  C         3.4123184738      137.4135756676       47.4737150771
  C         4.6382233873      137.7615707113       48.3384489011
  C         4.6932131020      139.2878832217       48.8204233211
  C         3.3871668761      140.0732135573       48.6239089100
  C         3.4388219563      141.5838687759       48.9086905438
  C         4.5085267479      142.2406743370       48.0285351395
  C         4.5200596527      143.7923986860       48.0079532187
  C         3.3576421465      144.5390131802       48.3370085283
  C         3.1637047793      146.0202468338       48.0647195609
  C         4.4063622949      146.7374115871       47.7275118419
  C         4.3826898325      148.1272352259       48.2617042660
  C         5.6172777623       -2.0550247153       48.3989864155
  C         5.6985068846       -0.5564201099       48.4496589782
  C         6.9019894893        0.0950772574       48.6684648321
  C         6.8414656229        1.5036603852       49.2208548869
  C         5.5537344609        2.2663024715       49.0858972372
  C         5.5273571922        3.6861384297       49.1762504726
  C         6.7420699759        4.4028362806       49.3052801367
  C         6.7236813990        5.8130682263       49.4828547730
  C         5.4990571649        6.5193587107       49.4573791147
  C         5.4893099384        7.9282806201       49.6092188832
  C         6.7037324828        8.6249850404       49.8188434265
  C         6.6947652643       10.0373613210       49.9222531716
  C         5.4741910478       10.7624215805       49.8160944248
  C         5.4427788566       12.1795951048       49.9474512743
  C         6.6369537905       12.8826431731       50.1647534059
  C         6.6823605615       14.3742253210       50.3907481434
  C         5.5224227862       15.0958816041       50.1021785452
  C         5.6114501480       16.5786483834       49.7333272775
  C         6.8319709177       17.2767935169       49.8660252042
  C         6.7955966002       18.7630435415       50.1479216161
  C         5.5481334169       19.5486420861       49.7633355791
  C         5.4355344896       21.0287454154       50.2271073061
  C         6.6178364384       21.7152605756       50.5639521329
  C         6.6562797881       23.2167991540       50.6159586043
  C         5.3974828645       23.9530672838       50.2917373960
  C         5.4071111493       25.3731911678       50.2495985228
  C         6.6415505322       26.0821609063       50.2914838119
  C         6.6427048625       27.4945215744       50.2120178482
  C         5.4202600917       28.2075055753       50.2224253568
  C         5.4299353263       29.6226062678       50.2715091393
  C         6.6670523453       30.3211960130       50.2546876428
  C         6.7017440058       31.8095386888       50.2429276535
  C         5.4038650789       32.4586091419       50.5993911069
  C         5.3917321795       33.8427841230       50.8991542987
  C         6.6416784071       34.5112484192       51.0446015118
  C         6.6695321285       35.8861461111       51.2693453874
  C         5.4234005827       36.6810331132       51.4584226038
  C         5.4663013674       38.0656140495       51.5507836737
  C         6.8175286223       38.8076968077       51.3314351131
  C         6.8097599218       40.2699366383       51.7945055369