   15597
 i =     5000, E =       598.4898018192
  C        -0.7511579500       -1.0502022118       74.4166999904
  C        -0.6372324772        0.4795201336       74.8093293519
  C         0.6040484973        1.2279565260       74.2910805258
  C         0.6210073179        2.7381498501       74.4957018726
  C        -0.6920481157        3.4914850226       74.4940328128
  C        -0.6878682565        5.0251375154       74.7256624291
  C         0.5690436506        5.7232645493       74.2722605771
  C         0.5909269554        7.1011753672       73.9302973161
  C        -0.7224010914        7.9254182713       73.7593171637
  C        -0.6261111371        9.3502622386       74.3104604209
  C         0.6376722657       10.1943601896       73.9759355559
  C         0.5491293633       11.5548089850       74.7385945844
  C        -0.7373774620       12.2950081485       74.5396723566
  C        -0.6971933362       13.7835550092       74.3805795725
  C         0.5007041716       14.5066390955       74.9981441998
  C         0.5962168282       16.0299417213       74.7056250656
  C        -0.7792268733       16.7411260315       75.0331688109
  C        -0.6881974969       18.2909159979       74.8500663715
  C         0.5554820294       18.9968605175       75.3509189404
  C         0.5339365359       20.4174723586       75.5125318942
  C        -0.7341166710       21.1949921482       75.3050375038
  C        -0.6900299417       22.6118806125       75.7915816623
  C         0.6147540638       23.3888925795       75.6983615027
  C         0.5854257359       24.7943865157       76.3553951023
  C        -0.6221126403       25.5981781031       75.8743110184
  C        -0.5800760741       27.0032393638       75.9933346435
  C         0.6947799434       27.7370947001       76.3809985705
  C         0.6874203207       29.2192746967       76.1457044496
  C        -0.5383455253       29.8986572995       76.7068018437
  C        -0.5047021172       31.4185608397       76.7528115238
  C         0.7156078668       32.0873357635       76.1294748367
  C         0.6847300922       33.4622981686       75.8652303282
  C        -0.6180688591       34.2380607373       75.9727429790
  C        -0.5300951521       35.7659560243       76.2184891997
  C         0.7355655852       36.4305764147       75.6255324425
  C         0.7588349429       37.9616393275       75.7127425452
  C        -0.5550766192       38.7118780286       75.9601638389
  C        -0.5159027707       40.1179188220       76.4935704290
  C         0.8230508109       40.7354712678       76.6764164938
  C         0.7288537723       42.2304180739       76.5560674407
  C        -0.4846844681       42.9491208340       76.5013703776
  C        -0.4350404320       44.4220507650       76.2729897898
  C         0.8038910897       45.0994442351       76.2209194328
  C         0.8156200915       46.5174006078       76.7249660748
  C        -0.4764278271       47.2963286102       76.4253556994
  C        -0.4915164202       48.6824055897       76.6382205425
  C         0.7571031699       49.3293545942       77.2456993528
  C         0.7013080113       50.6939963410       77.5251784555
  C        -0.5782853349       51.4395970917       77.1340170991
  C        -0.5955128637       52.8330929941       77.1437556363
  C         0.5507320850       53.5504995785       77.8599079874
  C         0.7797065741       55.0065143467       77.3247857832
  C        -0.5353030051       55.7004705604       76.9293619190
  C        -0.5537024358       57.2164732613       77.0193095689
  C         0.8039413217       57.9193418589       76.9829766823
  C         0.8153204260       59.3186170572       76.9479879135
  C        -0.4699679911       60.1035588978       76.8678331345
  C        -0.3515441108       61.5793714801       76.4927814966
  C         0.7342819901       62.2686793797       77.3193060073
  C         0.6240940780       63.7415454293       77.6562319071
  C        -0.4335826611       64.5006785943       76.8543806881
  C        -0.4934497408       65.9986257447       77.1278262311
  C         0.8760304399       66.6449016666       76.9218497600
  C         0.8698519042       68.0549871091       76.8853710953
  C        -0.4099978789       68.8501228666       76.6124489749
  C        -0.4103946975       70.2389135525       76.6924370325
  C         0.8953911525       70.9388788585       77.0356860645
  C         0.7579941982       72.3638017466       77.5789797883
  C        -0.3534856505       73.1425849388       76.7649874323
  C        -0.4409862597       74.6178244649       77.1623176228
  C         0.8040198365       75.2436774994       77.7624703216
  C         0.8037466282       76.7039426295       77.3593306250
  C        -0.4002090756       77.4630921684       77.8301505913
  C        -0.4030149849       78.8400663429       78.0909043033
  C         0.7592645179       79.6197358946       77.5042790282
  C         0.8524615451       81.0984327724       77.8693302016
  C        -0.5365676210       81.7977173257       77.5776793052
  C        -0.4682465250       83.3119457830       77.8781745843
  C         0.7168169140       84.0482544222       77.7096985069
  C         0.6593711967       85.5473634707       77.5779148217
  C        -0.5619677475       86.2444252755       78.1124798637
  C        -0.6198352719       87.7535158714       77.9264825913
  C         0.6970073688       88.5090841882       78.1778456583
  C         0.7276940001       89.9134495991       78.3335837252
  C        -0.5778598683       90.7153240537       78.2292336520
  C        -0.5224144077       92.0327075319       78.7241946583
  C         0.8220397954       92.6385940661       79.1670044533
  C         0.8856441045       93.9800014473       79.6143274175
  C        -0.3687960084       94.8060221184       79.1724041267
  C        -0.3325373600       96.3170700629       79.5128339315
  C         0.9080405228       96.9708224726       79.7604451157
  C         0.9319268850       98.1831140703       80.7204312579
  C        -0.3588357173       99.0077349456       80.5715891202
  C        -0.3231468160      100.3966187403       80.6966660774
  C         0.9724640689      101.1460854866       80.8270140735
  C         0.9207894582      102.6351210053       81.0187460588
  C        -0.3126437108      103.3395451009       81.0534067922
  C        -0.3607359964      104.8627211719       80.9285304901
  C         0.9087778643      105.5244623968       80.4392461601
  C         0.8662377623      106.8472771823       79.9743604607
  C        -0.4502263653      107.5791326662       79.8497425063
  C        -0.4510655037      109.0802757087       79.6387793176
  C         0.7245675259      109.7488431144       79.2532098381
  C         0.7380213439      111.2317538332       79.1444044829
  C        -0.5949467095      112.0169945994       79.2836029864
  C        -0.4706258193      113.5676434729       79.4117418968
  C         0.7170859685      114.1876113082       78.9966955743
  C         0.6238057283      115.5703425818       78.2729291887
  C        -0.6439555573      116.4275896239       78.5799522310
  C        -0.6808823060      117.8222153995       78.3532761857
  C         0.5473651150      118.5992927447       77.8019074490
  C         0.6772596268      119.9632816582       78.5536589660
  C        -0.6137088666      120.8034030115       78.5022886175
  C        -0.3874033489      122.2941540464       78.8363466652
  C         0.6264942399      122.8711831437       77.8447333894
  C         0.6323275488      124.2511231942       77.5877276574
  C        -0.3860630115      125.1188562394       78.3456968900
  C        -0.3857679975      126.5007990043       78.0905559383
  C         0.6828265837      127.1290980119       77.2556905817
  C         0.5964823098      128.5698451199       76.7687920095
  C        -0.6838148015      129.2615709436       77.2683825602
  C        -0.6740692937      130.7654105995       77.5595581773
  C         0.5685123953      131.4334700255       76.9183046235
  C         0.5418320944      132.7183764371       76.2964972487
  C        -0.7873474350      133.4995672692       76.2930471117
  C        -0.7646104946      134.9039842061       76.0755113282
  C         0.5358608731      135.6418951646       75.6198331929
  C         0.4871272024      137.1783184235       75.6428896111
  C        -0.6619178958      137.8989126418       75.9502782907
  C        -0.6048119040      139.3935899123       76.2024863072
  C         0.7625614327      140.1417338038       76.0677506840
  C         0.6904380736      141.5164179894       75.3963636455
  C        -0.6153092848      142.2535258250       75.3302339983
  C        -0.6659213597      143.6743244082       75.3470165851
  C         0.6066497227      144.4375280046       75.6728706808
  C         0.6037114059      145.8458076177       75.5261786298
  C        -0.6857508445      146.5618783358       75.0681935927
  C        -0.6755933593      148.0852075828       75.1928367383
  C         0.5750067967      148.7675035153       75.0739500501
  C         0.6103679543      150.1495317651       74.3877778318
  C         1.7933153528       -0.9354251190       74.8935734475
  C         1.8246674618        0.5162205824       74.3712101329
  C         3.1392566882        1.2784134582       74.4660434458
  C         3.1636839055        2.6857198602       74.3395390887
  C         1.8801358988        3.5123312289       74.0822280285
  C         1.8301946446        4.9643135780       74.6290901772
  C         3.0141291501        5.6640321635       74.8977108951
  C         3.0243900678        7.1630109835       74.8375456192
  C         1.9743681812        7.8713362384       73.9444388753
  C         1.9710880295        9.4243335576       74.1501087011
  C         3.0673819640       10.1290257815       74.6858915625
  C         3.0224526821       11.6007611568       74.9885659203
  C         1.6938085120       12.2336850042       75.1870186966
  C         1.6603943913       13.7622827610       75.3632882416
  C         3.0329053639       14.4833382808       75.3682580227
  C         3.1251461578       15.9106008492       75.2556815666
  C         1.7965437909       16.7046971733       75.5020653556
  C         1.9161284707       18.2356603335       75.1558189167
  C         3.0222177502       18.9322373170       76.0204783567
  C         3.0934672294       20.4352110762       75.6247048716
  C         1.8698498264       21.1663608715       75.4643652206
  C         1.8373857156       22.6865128245       75.5827647382
  C         3.0457640417       23.3172008381       76.2850557279
  C         3.1601798229       24.8683649746       76.0906765404
  C         1.8595865950       25.5724829893       76.1162866938
  C         1.8879680067       27.0371488047       76.3750234625
  C         3.1555907576       27.7592029297       75.9946847165
  C         3.1989044939       29.1366769515       75.7517630787
  C         1.8992538289       29.9022850213       75.8668283233
  C         2.0654466379       31.3554315514       76.2882149289
  C         3.2330987847       32.0611537383       75.4618478900
  C         3.2767257821       33.5503182862       75.8608984897
  C         2.0174811366       34.2210711109       75.9639278744
  C         1.9543758447       35.6980279653       75.6371497254
  C         3.2283648126       36.4454713436       75.9858421849
  C         3.2309087294       37.8256604325       76.2280561904
  C         1.9714869114       38.6137405656       75.9696740821
  C         2.0159462599       40.0210853132       76.4861239933
  C         3.2734483277       40.7723900410       76.0881287539
  C         3.2189801901       42.1577592290       76.6746275073
  C         2.0277009867       42.9368185892       76.3191326429
  C         2.1068702153       44.3197745841       76.1915656548
  C         3.4802194940       45.0296943369       76.3494568353
  C         3.3965529015       46.4653172801       76.9117144564
  C         2.0541523172       47.1563660315       77.0153862790
  C         2.1282091354       48.6914656639       76.8933954843
  C         3.3165678978       49.2573781626       77.7746385378
  C         3.2669662629       50.7678811752       77.8826685893
  C         1.9989017896       51.4775486711       77.5547306190
  C         1.8906142790       52.8397542369       77.7980197153
  C         2.9220981260       53.4929938506       78.7353384511
  C         2.9825400699       55.0290625525       78.5773011284
  C         1.7080396101       55.8415190541       78.2694889661
  C         1.9712162819       57.1942254143       77.5995373973
  C         3.2624485222       57.9354142480       77.8182201431
  C         3.2543988327       59.3392663503       77.8652752048
  C         1.9597851722       60.0609792177       77.5875616429
  C         1.7803574836       61.4713696473       78.1069555123
  C         3.1647551020       62.1741849403       78.1359828008
  C         3.2243139417       63.5722233713       77.9779049014
  C         2.0175552748       64.3961419208       77.5146812670
  C         2.0696213857       65.8100633262       77.3710589068
  C         3.1255784478       66.5344027885       78.2438854114
  C         3.2926227736       68.0289117096       77.8521527981
  C         1.9154492633       68.7571040387       77.7576748135
  C         2.0637376033       70.2268991004       77.3854275217
  C         3.1917835762       70.9031795059       78.0814129691
  C         3.4276268458       72.3456389475       77.6902595359
  C         2.1008178618       73.0825684181       77.5560378100
  C         2.1373450134       74.5440496433       77.4387756189
  C         3.2315561847       75.2947522078       77.8682138843
  C         3.1416817564       76.8018591503       77.9532347255
  C         1.9724002093       77.4318818515       77.2294528586
  C         1.9268637758       78.9239021131       77.1499108128
  C         3.2839228061       79.6053405814       77.1715734961
  C         3.2461573030       81.1167231073       77.0762792673
  C         2.0293537094       81.8405665566       77.1832597961
  C         1.9937379922       83.3601140167       77.2318736347
  C         3.1832112698       84.0696940423       77.4079530533
  C         3.1563203686       85.5112780254       77.8103125803
  C         1.9435509912       86.2347744569       77.9079970912
  C         1.9684795292       87.7746792045       77.7654164363
  C         3.2056926589       88.4784960283       77.6712945957
  C         3.3252877988       89.9859523296       77.7900691370
  C         2.0308075167       90.7079644652       78.1187722387
  C         2.0636422855       92.0602652533       78.5349880027
  C         3.3681184934       92.8829071091       78.6285449450
  C         3.5262572800       94.0382987185       79.7086106060
  C         2.1654194389       94.7790887813       80.0369748881
  C         2.1972417846       96.2348275699       79.6278287133
  C         3.4923732586       97.0157531855       79.6871901733
  C         3.5407057394       98.1968619196       80.6832376000
  C         2.2399554623       98.9766236942       80.5858541026
  C         2.2786225217      100.4827245276       80.3699209322
  C         3.5088679461      101.1436045789       81.0958631199
  C         3.5249184837      102.6668794093       80.8667562854
  C         2.2052458063      103.3913614117       80.5367621490
  C         2.2051154329      104.9023449658       80.9831016160
  C         3.5034438975      105.5877593122       80.5310812296
  C         3.4448176567      106.9429879158       80.1572087882
  C         2.1040198821      107.6925528794       80.1038908889
  C         2.0441980404      109.0338505713       79.6513778782
  C         3.3626077567      109.6595031601       79.1985306168
  C         3.3371883531      111.1482778056       78.7857183825
  C         2.0589181637      111.9428683032       79.3280437744
  C         1.9772349481      113.3542294662       78.6247276208
  C         3.2674663322      114.1865089577       78.9786358275
  C         3.2647106419      115.5635670600       78.2243809085
  C         1.9368431635      116.4069522100       78.5350937000
  C         1.9426297211      117.7812924114       77.7477745777
  C         3.2441862638      118.5390077033       78.1816531767
  C         3.2252926064      119.9398847215       78.1655226218
  C         1.9073265690      120.6727924819       77.9526662198
  C         1.8912727155      122.0501306377       77.6476691555
  C         3.2263175656      122.7934379741       77.7441674810
  C         3.2034856534      124.1487275704       77.0198474049
  C         1.8847327468      124.9215427723       77.0282674924
  C         1.8849764989      126.3147557248       76.9242637277
  C         3.1632007267      127.0937451246       77.0119357027
  C         3.1116265889      128.4895627130       77.6325532973
  C         1.8844353465      129.2808771172       77.1653013929
  C         1.8704343723      130.7730199019       77.4319945997
  C         3.1214188906      131.4047511257       76.8644484782
  C         3.0264937337      132.8722465467       76.8477923628
  C         1.8760212679      133.5134174318       76.0912863067
  C         1.7532576924      135.0468009903       76.3384064269
  C         2.9140282739      135.8068495691       76.5857771579
  C         3.0428397835      137.2164705436       76.1181441533
  C         1.8126702386      137.9139405228       75.5778446426
  C         1.9121265477      139.3153406078       75.4747897869
  C         3.2600838202      139.9796966099       75.4128124502
  C         3.3623913112      141.4705065875       74.9993627958
  C         1.9648376447      142.2660315830       74.9083655652
  C         1.9101271278      143.6823422380       75.5588779129
  C         3.1580295841      144.4063502862       76.0664799084
  C         3.1510262542      145.8915416839       75.6462366318
  C         1.9498943148      146.5616663469       75.3008672239
  C         1.9470671136      148.0717355702       75.0885722063
  C         3.1073914501      148.8706088822       75.3302138175
  C         2.9857924356      150.3982278973       75.3706272337
  C         4.2950765850       -0.7567771778       75.4589193264
  C         4.3466890854        0.6144955328       75.1312979823
  C         5.6990720627        1.3211244747       74.9538905212
  C         5.7054594675        2.7191623941       74.7993175198
  C         4.3402784012        3.4358185280       75.0125346059
  C         4.3771184651        4.9685155200       74.6135617861
  C         5.5684075164        5.6940474447       75.2900558916
  C         5.5304620714        7.2005078492       75.2138948992
  C         4.1887813448        7.8994246871       75.5454315376
  C         4.2141305176        9.4188735696       75.3295558525
  C         5.5110312924       10.1540762095       75.2541244306
  C         5.5447884526       11.5562403480       75.2338031219
  C         4.2396106061       12.2826705883       75.5242935930
  C         4.2514071440       13.6663205194       75.8353457319
  C         5.5794095443       14.4177790897       76.0598018081
  C         5.4593152626       15.9297491101       76.3635459221
  C         4.4673441653       16.7198163719       75.4452816155
  C         4.3673004221       18.2020290151       75.9325266152
  C         5.4990395990       18.8274963997       76.7893515342
  C         5.6159319823       20.3581988271       76.6761128406
  C         4.5059323957       21.0559152868       75.8101903081
  C         4.4207520534       22.6560726938       75.8643770051
  C         5.5176448852       23.2888820076       76.8312262504
  C         5.6189935618       24.8764906194       76.9011046546
  C         4.3594766762       25.5781163239       76.3408263721
  C         4.4148094569       27.0892068586       76.5426014572
  C         5.7041180757       27.6631623528       75.8428484731
  C         5.7654074361       29.1799209861       76.1056357905
  C         4.5460850857       29.8913221470       75.9639890689
  C         4.6072871707       31.3407913596       75.5170943586
  C         5.8502094694       32.0609490297       75.4673562681
  C         5.8232036403       33.5943849918       75.3276854574
  C         4.5715463732       34.2978673199       75.5016762127
  C         4.5476756229       35.7779761600       75.6581788649
  C         5.7931871571       36.3849187461       76.2046280330
  C         5.7637167897       37.7436784060       76.6002211158
  C         4.5510896607       38.5497167778       76.2129916587
  C         4.5971149428       40.0612173009       76.3426888561
  C         5.7332313609       40.6854509697       76.9140359047
  C         5.6069373669       41.9914056655       77.6453652951
  C         4.2849528978       42.7730189333       77.5671539051
  C         4.5477265107       44.2289617380       77.1246496143
  C         5.6395177248       44.9845217479       77.9022697263
  C         5.9778129452       46.4554585997       77.4086749557
  C         4.7293769237       47.2686070718       76.8437945173
  C         4.7237500289       48.7443132321       77.3550592157
  C         5.8206641088       49.4255433468       77.9842511781
  C         5.8165743851       50.8947037323       78.3628285860
  C         4.4928197792       51.5941049287       78.1535378686
  C         4.3174489792       52.9034065866       78.6020541131
  C         5.3661202704       53.5735526669       79.4652374902
  C         5.4032644274       54.9823483569       79.3805266622
  C         4.3626912233       55.6869778927       78.4469477861
  C         4.2749479638       57.2159541250       78.7374990082
  C         5.7245376578       57.8451996915       78.6249779044
  C         5.6698006808       59.3511699898       78.8981659985
  C         4.3467708760       60.0440298704       78.7117398773
  C         4.3085214741       61.4369335338       78.8359431131
  C         5.6563163037       62.2105910183       78.9889299185
  C         5.3516737663       63.6519835671       79.4918663326
  C         4.2981087095       64.3113194121       78.7728417782
  C         4.4998922825       65.7819209079       78.3189050128
  C         5.5614795366       66.5566108626       79.1980816171
  C         5.7398641405       67.9601691751       78.6672789587
  C         4.5010636843       68.7025939438       78.1939243805
  C         4.2941171769       70.1023361551       78.7961650290
  C         5.6438353720       70.9145676947       78.8977167046
  C         5.3407383305       72.3234282511       79.5198529487
  C         4.3147829065       73.0853374669       78.6772684727
  C         4.2083593355       74.6068050696       78.8218463249
  C         5.6109630882       75.2423575177       78.5966294032
  C         5.5860116929       76.8022464129       78.6763890126
  C         4.3073634825       77.5276642555       78.2391257004
  C         4.4321936059       78.9358177945       77.6680621943
  C         5.6486163165       79.7002584394       78.0858538960
  C         5.7273431865       81.1525980837       77.6834608874
  C         4.5472755733       81.8558730564       77.3306451053
  C         4.4190901572       83.2813972459       77.9029148268
  C         5.7427875080       84.0432901546       77.7518185605
  C         5.7490820714       85.4459290042       77.5992528287
  C         4.4445614507       86.2683621974       77.4163768477
  C         4.4549341898       87.6712371321       78.1022160459
  C         5.8006836831       88.4414330657       77.9938163845
  C         5.8594710772       89.8390242622       78.0742818984
  C         4.5788969105       90.6290769650       77.9676736772
  C         4.6107539035       91.9327789209       78.7810005781
  C         5.9434248843       92.7225935730       78.6695674693
  C         5.9043559736       94.2512072679       78.4877600704
  C         4.6895038861       94.9171778343       79.1818785513
  C         4.7144335397       96.3839714631       79.4037246548
  C         6.0530259307       96.9542562735       79.8654484001
  C         6.1131144350       98.2537459624       80.4125844393
  C         4.8254620352       99.0266592712       80.4855097410
  C         4.8499932281      100.5297901687       80.6211532094
  C         6.0815648710      101.2595743028       80.6883483037
  C         6.1012404972      102.7191328736       81.2285460200
  C         4.7327323766      103.4472671467       81.4109028938
  C         4.8022901856      104.9506670381       81.0272739762
  C         6.0156527838      105.6213614699       80.7219292160
  C         6.0180911020      107.0270108501       80.0681639837
  C         4.6843708400      107.8100232140       80.4025254185
  C         4.6079178866      109.0695503492       79.5380653158
  C         5.8870781639      109.8411594620       79.4689052302
  C         5.7950821786      111.3274922685       79.5246166561
  C         4.5827769946      111.9613584669       79.2091763932
  C         4.5967348223      113.4113843028       78.7461996566
  C         5.8092684009      114.1458592954       78.7383711884
  C         5.7866221405      115.6803940746       78.8211615559
  C         4.5554508234      116.3534348975       78.5591918458
  C         4.5589173646      117.7635332236       78.0140256409
  C         5.7873120441      118.4367084130       77.9462618868
  C         5.8157350588      119.9556274422       78.0995423732
  C         4.4855549500      120.6011869816       77.6628204043
  C         4.4623371807      121.9582523355       77.3368678897
  C         5.7676628144      122.6978746917       77.3029198225
  C         5.7685019461      124.0947867823       77.1656311007
  C         4.4460714282      124.8126247497       76.9307878572
  C         4.4476032458      126.3229118138       77.1624896143
  C         5.6603429318      127.0364826138       77.0780157202
  C         5.6352119817      128.5516200425       76.8151919207
  C         4.4001896567      129.2678734538       77.3549834971
  C         4.3279239630      130.7114435355       77.0087010891
  C         5.5671820801      131.4627948889       77.4083478098
  C         5.5702053556      132.9316565596       77.0451347476
  C         4.2089479650      133.6727363418       77.3178261108
  C         4.2404006830      135.0859573080       76.6904302463
  C         5.4937700686      135.7485690143       76.6283296727
  C         5.5686319886      137.2381110707       76.7039566357
  C         4.2189958287      138.0076877122       76.7329590791
  C         4.3492429903      139.3372754811       76.0145788736
  C         5.5801682214      140.0743576289       76.3650254003
  C         5.4570135961      141.5685101024       76.4470936740
  C         4.3887914600      142.2450585849       75.8447365119
  C         4.4655496731      143.7652066529       75.5038753645
  C         5.7998944221      144.5543051145       75.9208237890
  C         5.6055666398      146.0348146030       76.3539006414
  C         4.3717597718      146.7020817142       76.1284686299
  C         4.3648913826      148.2353589152       75.9585365890
  C         5.5899894794      148.9654881749       75.9211309815
  C         5.6188980791      150.4102270340       75.4132764903
  C         6.8643062848       -0.8598805522       75.4440329838
  C         6.9008813454        0.6675071143       75.6482676366
  C         8.2019183321        1.3029402085       75.1829248190
  C         8.2550300580        2.8071017781       75.1673709733
  C         6.9051580870        3.4978579291       75.2001684040
  C         6.7759393744        4.9778543792       75.4788085339
  C         8.1352574268        5.7156519171       75.4354326533
  C         7.9852946267        7.1610032662       75.9369207259
  C         6.8696272873        7.9800284839       75.2446361618
  C         6.7500660386        9.4285130489       75.7605481815
  C         7.9456690701       10.1233482079       76.0932372157
  C         8.0282656888       11.6122766415       75.7700291121
  C         6.8563228686       12.2900902972       75.3936653198
  C         6.8059864728       13.7656104672       75.7627395753
  C         8.1028103264       14.5256912404       75.4387794921
  C         8.0550507711       16.0890256923       75.7234024099
  C         6.8222802581       16.6861928998       76.4742026202
  C         6.8532239206       18.1053908517       76.6514473043
  C         8.1499638375       18.9398346773       76.3466549695
  C         8.1820584938       20.4890307582       76.4377855729
  C         6.8269459914       21.1061468261       76.6916684053
  C         6.8744426935       22.6373978556       76.4619071910
  C         8.0019450322       23.3058881392       77.2326772388
  C         8.1968120817       24.7407650535       76.9135448030
  C         6.9601734275       25.4686117807       76.4203208143
  C         6.9833766031       26.8537871138       76.1591900926
  C         8.1213115288       27.6100810320       76.8308475830
  C         8.3615801323       29.0163260990       76.3068214228
  C         7.1383073839       29.8153550530       75.7366320610
  C         7.1310084606       31.3738617092       76.0798268401
  C         8.5120366283       31.9672307429       75.7126304513
  C         8.5884643839       33.5264441742       75.5800349983
  C         7.2190934723       34.3184819231       75.1487010657
  C         7.1470551931       35.8760573043       75.6047218333
  C         8.4112354608       36.3849543060       76.3720789626
  C         8.2286624804       37.6254344850       77.2783235703
  C         7.0558550642       38.4983348101       76.8269623386
  C         7.0010808887       39.8756443796       77.1251360674
  C         8.0774647992       40.4683751359       78.0322821147
  C         7.9978560390       41.9120159905       78.4100042890