   14964
 i =     4149, E =       524.1061628567
  C        -0.8983409352       -1.4303835338       51.6342200098
  C        -1.0862543954        0.0010183322       50.9806914732
  C         0.2233406994        0.8009784413       50.9981867002
  C         0.1873349885        2.1827212692       51.2845990827
  C        -1.0739190987        2.9473601494       51.5652345016
  C        -1.1084149134        4.3498986017       51.6067556929
  C         0.1254311418        5.0302159498       51.6477817211
  C         0.1182694404        6.4306301713       51.5158273401
  C        -1.1238375484        7.1219402431       51.4869789728
  C        -1.1360408461        8.6115187183       51.3391366408
  C         0.1639927368        9.3063710115       51.6930662623
  C         0.2176690314       10.6785513963       52.0214614877
  C        -1.0089601868       11.5671449137       51.6924485088
  C        -0.9834928228       12.9888463353       52.3067940906
  C         0.2457912742       13.6773315481       52.2103201299
  C         0.2407420589       15.1660553858       51.8847798647
  C        -0.9843845606       15.8713062587       51.8283778859
  C        -0.8993427782       17.3492419365       52.3024077022
  C         0.3014393603       18.0546215794       51.6323249683
  C         0.2758020872       19.4360061714       51.3638989390
  C        -1.0093743162       20.2253732683       51.5402532301
  C        -0.9061831111       21.7568197509       51.8663772623
  C         0.1185428519       22.3555911372       50.8767845137
  C         0.1911050809       23.8867872057       51.0030124773
  C        -1.0670736637       24.7008733053       51.0983400943
  C        -1.0509663926       26.1049346604       50.9718873561
  C         0.2805081765       26.8371516294       50.7116783794
  C         0.2927293420       28.3443877054       51.1084437380
  C        -0.9034489433       29.0487380333       51.3765221873
  C        -0.9741973046       30.5403725491       51.1577946167
  C         0.2367155010       31.2670547323       50.9187815009
  C         0.2307113836       32.6923670176       50.9252652661
  C        -1.0027048039       33.3832297648       51.0314284341
  C        -0.9987772854       34.8116182295       51.0119477193
  C         0.2235412762       35.5513861411       50.9514237252
  C         0.2240179556       36.9798108905       50.9538524529
  C        -1.0119858248       37.6759946070       50.9615429877
  C        -1.0205960096       39.1042448797       50.9122085686
  C         0.1999324967       39.8415830941       50.9030349853
  C         0.1882616889       41.2688266629       50.8566354986
  C        -1.0477617822       41.9631067486       50.7713777513
  C        -1.0766499526       43.4389704641       50.4566113823
  C         0.2135772017       44.1535623628       50.7702438463
  C         0.0872495912       45.6557469025       50.9891480631
  C        -1.0746038106       46.3890428121       50.6363081667
  C        -1.0763344348       47.9258704582       50.4800770796
  C         0.2731633404       48.6577244439       50.5318029450
  C         0.1926924010       50.1266661434       51.0447947570
  C        -1.0983925078       50.8916507230       50.9087492531
  C        -1.0249341100       52.3390437809       51.2839382760
  C         0.1056919393       53.0859283128       50.6156247308
  C         0.2022053056       54.5684138435       50.9865584016
  C        -1.0442520835       55.3469757651       51.3032421295
  C        -1.1501092887       56.6463532194       50.7629118009
  C         0.0483516964       57.3113800811       50.0577270001
  C        -0.0310476950       58.7092763434       49.8174871166
  C        -1.3720663403       59.4249061331       49.9716751220
  C        -1.3447690707       60.9165420838       50.3192253672
  C        -0.1413356925       61.6410994922       50.4680521843
  C        -0.0822714243       63.1581714880       50.4478619796
  C        -1.3437025098       63.9332563114       50.1149892995
  C        -1.2915040550       65.5016348843       50.0639515246
  C        -0.0172470200       66.1810074180       50.5679392260
  C        -0.0692769456       67.6763431329       50.8132408128
  C        -1.2960167004       68.3447574856       51.0106773184
  C        -1.3631909888       69.7037630944       51.6966569143
  C        -0.1003185600       70.5019084136       51.7674642926
  C        -0.1641534016       72.0161108788       51.5963253873
  C        -1.3836333093       72.6141666513       52.3629478310
  C        -1.4354860201       74.1664955836       52.2942860154
  C        -0.1079194660       74.9358419412       52.3311052047
  C        -0.0588792808       76.3539081546       52.2906046007
  C        -1.3071829358       77.1059619951       51.7780440690
  C        -1.3025254801       78.5385917968       51.7827984018
  C        -0.1066856316       79.3141922395       52.3679960147
  C        -0.0175507387       80.8175324917       51.8773307080
  C        -1.2545589004       81.6251651713       52.3497270941
  C        -1.1391495037       82.7941985530       53.1647617404
  C         0.2111176689       83.4332472666       53.4682748644
  C         0.2444879877       84.7556927371       53.9706047838
  C        -1.0678774318       85.5113811502       54.2421531590
  C        -1.0626428324       86.9156523624       54.3375144998
  C         0.1853075221       87.6512049186       53.8805824248
  C         0.1769355869       89.1300895650       54.1004000929
  C        -1.0953343854       89.7774047018       53.5678442963
  C        -1.1666731294       91.2972083907       53.9558201535
  C         0.1428259096       92.0498003293       53.6425682996
  C         0.0744364953       93.5583959664       54.0098444080
  C        -1.2253643515       94.2589810148       53.5269422809
  C        -1.2435590652       95.7281155330       53.7602809810
  C         0.0494325906       96.4896069449       53.8675138716
  C         0.0107931925       97.9940390730       53.6081651123
  C        -1.1748696652       98.6360138951       53.2073301326
  C        -1.1278741771      100.0614135294       52.7419813067
  C         0.1785254094      100.7888778670       52.3791680073
  C         0.1805550963      102.2494511365       52.9192074171
  C        -1.1537249738      102.9641114346       52.5366742679
  C        -1.0802019475      104.2504746448       51.6385739022
  C         0.3005502515      105.0745042554       51.6167285088
  C         0.1312157292      106.5471556314       52.0055333041
  C        -1.1121995228      107.2852980686       51.4386246270
  C        -1.1698285613      108.8066789835       51.7190020549
  C         0.0613199328      109.5096763586       51.7487005055
  C         0.1279328314      110.8984046345       51.1066423759
  C        -1.1740344103      111.6001228737       50.9210213655
  C        -1.1315037419      113.1014139003       51.1236264921
  C         0.0179292158      113.8272480271       50.3527859840
  C         0.0478091106      115.4305793291       50.4816860420
  C        -1.0817214758      116.0459441164       51.3940565673
  C        -1.1570480096      117.5685031563       51.1374048856
  C         0.1780144590      118.3209789347       51.2539202527
  C         0.1799522067      119.7103996871       51.4509434236
  C        -1.1083868875      120.4719492632       51.6438164901
  C        -0.9373907470      121.8026116893       52.3720098097
  C         0.3141359550      122.4704834694       52.3742761900
  C         0.3653239602      123.9303507242       52.7394151423
  C        -0.7255251094      124.4936943038       53.6621230112
  C        -0.7404391820      126.0293656488       53.6426610995
  C         0.6439235791      126.6922462623       53.8093307386
  C         0.5552788583      128.2824925404       53.9784882705
  C        -0.7886494696      128.9082471509       53.4118402356
  C        -0.7907125942      130.4508757963       53.5426978141
  C         0.4200561187      131.1298654557       53.0070695732
  C         0.3633587437      132.4366618622       52.4515088247
  C        -0.9534400356      133.2384008741       52.2531992362
  C        -0.8805332410      134.6987583222       52.7161962240
  C         0.4228077904      135.3899701840       52.9431089598
  C         0.3671664410      136.8852622953       52.8933038693
  C        -0.9076956713      137.5624352276       52.4419674240
  C        -0.9501509177      139.1009335018       52.7751577037
  C         0.3299271656      139.7953134257       52.2783722681
  C         0.3123108335      141.1595049494       51.8973287437
  C        -1.0112505712      141.9884070420       51.8586914400
  C        -0.8546743405      143.3212445629       52.5911557758
  C         0.4823823091      144.0701320459       52.6694313409
  C         0.3501002521      145.4934244196       52.0683260786
  C        -0.8872703651      146.1335259572       51.8497762878
  C        -0.9175357857      147.6411106588       51.4983048537
  C         0.2564734770      148.3742731531       51.1998118583
  C         0.3112381141      149.9071644514       51.1900473814
  C         1.5121862826       -1.4677107102       50.6741229066
  C         1.5127170544       -0.0088942146       51.2221148118
  C         2.7345211582        0.6701817033       51.3807454660
  C         2.7841422463        2.2235475488       51.2666571689
  C         1.4490864311        2.8827152087       51.6995003405
  C         1.4113965423        4.2766479443       51.8763884076
  C         2.7306801245        5.0261796189       51.7790865793
  C         2.7340257992        6.4185809482       51.5603297151
  C         1.4173962044        7.1695200841       51.3272094126
  C         1.4430827024        8.5804573578       51.3041396554
  C         2.7489173501        9.3721317195       51.3246499820
  C         2.7748079712       10.7487595766       51.6076000351
  C         1.5493541525       11.4289053331       52.2309923202
  C         1.5049931701       12.9301108619       51.7348685046
  C         2.8013124911       13.6790656845       52.1124745639
  C         2.7744357504       15.1524123981       51.8573180185
  C         1.5619995270       15.8854594330       51.9066117856
  C         1.5767720268       17.2958735513       51.7422617312
  C         2.7813069637       17.9582203085       51.4586903828
  C         2.7834502282       19.3384675585       51.0707473303
  C         1.5790152574       20.2118614416       51.2685616839
  C         1.5018021784       21.6082700006       51.0030966397
  C         2.5741278772       22.2964098290       50.1518807725
  C         2.6621952248       23.8560051939       50.4035440031
  C         1.5450849578       24.5132880777       51.2614957551
  C         1.5515316297       26.0833734995       51.2106876679
  C         2.7656376431       26.7959530811       51.0701390314
  C         2.8272575106       28.3225553234       50.9064515409
  C         1.5308890849       29.0862660360       50.6811104452
  C         1.5046582308       30.4960953666       50.6243495615
  C         2.7468730390       31.3378429961       50.6777484640
  C         2.6920318323       32.7553414100       50.6800369669
  C         1.4526519595       33.4315762877       50.8200739679
  C         1.4562572411       34.8572545666       50.8660908074
  C         2.6843487813       35.5891278370       50.8428313951
  C         2.6865554367       37.0208316766       50.8833606730
  C         1.4478257644       37.7167373981       50.9166050878
  C         1.4380152686       39.1459271308       50.8926839583
  C         2.6567351553       39.8872304008       50.8351352370
  C         2.6459420316       41.3136333921       50.8254704904
  C         1.4127669094       42.0100097785       50.8307054763
  C         1.4292615268       43.4390845250       50.8822948284
  C         2.6479021481       44.1664522597       51.0086296335
  C         2.6872362728       45.6621584770       51.2784002398
  C         1.3605275680       46.4407103768       51.3003973844
  C         1.4000369707       47.8651123225       51.2346649858
  C         2.7343186921       48.6501242536       51.2926627571
  C         2.6511144927       50.0952325790       50.7289652870
  C         1.4047304182       50.8468374490       51.0243320114
  C         1.4930862249       52.3890705359       50.9308529179
  C         2.5810861490       53.0269340498       50.0232885556
  C         2.6413039921       54.4282028935       50.0759483662
  C         1.5581075060       55.2762572565       50.7814307890
  C         1.4003734904       56.5936321261       50.0237208071
  C         2.6128184759       57.2743134566       49.7720451795
  C         2.5374548133       58.7355162414       50.1484882650
  C         1.2892041744       59.5505111628       49.6799770112
  C         1.1950142034       60.9869310255       50.2810168337
  C         2.3794927032       61.5490335075       51.0939545548
  C         2.4358254260       63.1027611184       51.1609091229
  C         1.2649102614       63.8774261764       50.4532138098
  C         1.1571169794       65.3353891300       51.0759674964
  C         2.5361390820       66.0613212173       50.9238243380
  C         2.4798628255       67.6229149813       50.9389981099
  C         1.1634143046       68.2538017249       51.5245954088
  C         1.1974201167       69.8149111858       51.4755479928
  C         2.3777934838       70.5011693589       51.8099474171
  C         2.3338916749       71.9538864240       52.2847245542
  C         1.1389421092       72.6821656827       52.0994683656
  C         1.1714589975       74.2081092535       51.8292950117
  C         2.4227788348       74.9090225107       52.3250699409
  C         2.5199147137       76.3765519288       52.0983635409
  C         1.2293549427       77.1095648501       52.2615315170
  C         1.2472126395       78.6038755481       52.0016484211
  C         2.4335591715       79.2416314018       52.7507195278
  C         2.4722124355       80.6383914895       52.9328767597
  C         1.4390926229       81.4822273033       52.1431285242
  C         1.4322465401       82.9239331761       52.7122597249
  C         2.6369260174       83.5583878778       53.1105008214
  C         2.7330043618       84.9304077906       53.6322601191
  C         1.5253780543       85.5541901308       53.8931407983
  C         1.4021762798       87.0040894855       53.7152307877
  C         2.7154909096       87.7420730024       53.7306065556
  C         2.6708607818       89.1499327744       53.8431691645
  C         1.3718362201       89.8626485354       54.0813493537
  C         1.3615617583       91.3523673803       53.7592308618
  C         2.6303620845       92.0928693179       54.1349988405
  C         2.6031273131       93.6267928250       54.1135211009
  C         1.3555554370       94.3146828055       53.5113986195
  C         1.2941262489       95.8229010602       53.8478047567
  C         2.5947969950       96.5889032092       53.4826650884
  C         2.5751349200       98.0689976629       53.8824980813
  C         1.3593765702       98.7266652821       53.5646880720
  C         1.4821643170      100.0601590634       52.8071977412
  C         2.7429839273      100.7327102068       52.8881116851
  C         2.7150197394      102.2318391857       53.1323950711
  C         1.5184139718      102.9475622356       52.5830664220
  C         1.5246603122      104.3147918305       52.2316134607
  C         2.6616231152      105.1853045846       52.7570105770
  C         2.7441872236      106.6160672569       52.2402885902
  C         1.3603755905      107.3406104796       52.4556947555
  C         1.3889619544      108.7559708104       51.8216776851
  C         2.5827264053      109.5151679628       51.8684799068
  C         2.4592724051      111.0795367605       51.9517031420
  C         1.3442603520      111.6314400443       50.9967462207
  C         1.4540727744      113.1114861174       50.4696177501
  C         2.6093072802      113.8953273677       51.1231615446
  C         2.5626103711      115.3971859590       51.1557556388
  C         1.3865325428      116.1131695882       50.9255200669
  C         1.4174873457      117.6471002120       50.6322387453
  C         2.7296444708      118.3965960958       50.9700085371
  C         2.6212824374      119.8383865963       50.5920500296
  C         1.3657923557      120.5631632588       51.0157614077
  C         1.4298755529      121.9004364699       51.4785123147
  C         2.7612704456      122.5893257056       51.5153341126
  C         2.8756404707      124.0480224125       52.0390248746
  C         1.5165594966      124.7973102926       52.2940699855
  C         1.6084401239      126.1700003618       52.6880819987
  C         2.9497767926      126.8644630723       52.6023271585
  C         2.9968190870      128.3155835572       53.0245952017
  C         1.8588688787      128.9888162631       53.5394230000
  C         1.7614575350      130.5422349261       53.5118032470
  C         2.9329284515      131.1904368139       52.7278124025
  C         2.9613444576      132.7092303382       52.8238638378
  C         1.6427066550      133.2970650559       52.2144067788
  C         1.6252548360      134.7422905991       52.7095769838
  C         2.8552706922      135.5675906993       52.3304232508
  C         2.8557060540      136.9610147498       52.4655508255
  C         1.6627718094      137.6730251804       53.1412206294
  C         1.6308162251      139.1897318129       52.7847925965
  C         2.8382192089      139.8646143193       52.4988947433
  C         2.9289204928      141.2315035851       51.9019159777
  C         1.6113492521      141.9596629024       51.7919874000
  C         1.6553521876      143.3538901528       51.9883292834
  C         2.9753245087      144.0972224092       52.0192710592
  C         2.9231260983      145.5123734724       51.9665446192
  C         1.6311650465      146.3611316756       52.1988486326
  C         1.5629568364      147.6863896223       51.3935209355
  C         2.7911500146      148.4635004333       51.0595070052
  C         2.8009053699      149.8622068348       50.8422841337
  C         4.0559689312       -1.5763203103       51.4003261021
  C         4.0752303719       -0.0358370646       51.0355230638
  C         5.2496118303        0.6546110371       51.7735915547
  C         5.1809911550        2.0079037262       52.2278196561
  C         3.9453017813        2.8108099966       52.0580346674
  C         3.9403351654        4.3076959665       52.4284546097
  C         5.2622491535        5.0135024713       52.0750733505
  C         5.2552338587        6.5200723481       52.3026934856
  C         3.8957508009        7.2445198060       52.1750817725
  C         4.0281742559        8.5916218464       51.4847483834
  C         5.3289102704        9.3639967943       51.4624695071
  C         5.3349249404       10.7573352790       51.5696519572
  C         4.0536600904       11.4621866097       51.9147743367
  C         4.0031486618       12.9518716445       52.1178660821
  C         5.2733106116       13.5975626676       51.7597352322
  C         5.3070872490       15.0760997520       51.5414852992
  C         3.9934646861       15.8228831965       51.6462471645
  C         3.9825376065       17.2346997993       51.5495393462
  C         5.2470316687       17.9920769133       51.6267380706
  C         5.2257794050       19.4049661752       51.0610484626
  C         4.0375600233       20.0427163687       50.6287031779
  C         3.9890518457       21.5494955618       50.1328107010
  C         5.1145657072       22.3955408262       50.8418214420
  C         5.1810459184       23.8056583862       50.2235632808
  C         3.8684440413       24.5895004337       50.3061989029
  C         4.0142352986       26.0232326362       50.7542039061
  C         5.0774908957       26.7403589125       49.9384583461
  C         5.2056046479       28.2552345909       50.1811298042
  C         4.0144192806       29.0287909841       50.6631244602
  C         4.0467974823       30.5501780634       50.6009887641
  C         5.1994956196       31.2480281781       50.2229114032
  C         5.1630825128       32.7741886763       50.1274726402
  C         3.8987434169       33.4826274614       50.5343030550
  C         3.9160309155       34.8869799830       50.7401864004
  C         5.2524407400       35.5789354572       50.8588607466
  C         5.1436325272       37.0753736517       50.7621564101
  C         3.9063919177       37.7678559628       50.8286498488
  C         3.8977634326       39.2010528657       50.8177159467
  C         5.1181549718       39.9503997533       50.8165517402
  C         5.0994229527       41.3688483823       50.7042615837
  C         3.8618931322       42.0540339392       50.7571545895
  C         3.8662465671       43.4751535928       50.7777568664
  C         5.1221670320       44.2765739700       50.5064913523
  C         5.1522410019       45.6698785708       50.6139630771
  C         3.9040205937       46.3705668761       51.0825713847
  C         3.8209378437       47.8208344554       50.5771721310
  C         5.1539529298       48.5949856125       50.6623170188
  C         5.1361283235       50.1413126180       50.7168903229
  C         3.8601177880       50.6887920284       49.9779895521
  C         3.8936607382       52.2620139412       49.7311949371
  C         5.1615947479       52.9424383338       50.3178173922
  C         5.1895890735       54.3481899351       50.2822163756
  C         3.9558394811       55.1175492428       49.9101409965
  C         4.0029956993       56.6200036409       49.6486332249
  C         5.1665833915       57.2464080116       50.4110475751
  C         5.0514412404       58.6135066338       50.7148387045
  C         3.7018606126       59.3710913403       50.6390302405
  C         3.7349888211       60.9296475550       50.5687516460
  C         4.9731639379       61.5528352009       51.2629308603
  C         4.9672777677       63.0653546906       51.3827743318
  C         3.6538383725       63.8007491259       51.3913088090
  C         3.7236327559       65.3170379958       51.1816174960
  C         4.9359017983       66.0515922426       51.7567412570
  C         5.0523588723       67.5730161774       51.4955624235
  C         3.6804442052       68.2394386111       51.6642269307
  C         3.5677980931       69.6405799216       52.3044096508
  C         4.9065459385       70.4262533936       52.0747956250
  C         4.8831833724       71.8286741637       52.8101276307
  C         3.6425983488       72.6654762170       52.4298263825
  C         3.6099174457       74.1342653839       52.9017770757
  C         4.9614793963       74.8092616906       52.5731415943
  C         5.0241746238       76.1855206690       52.3024009887
  C         3.7557862019       77.0142461113       52.2222248324
  C         3.7374678787       78.4321808367       52.8080048090
  C         4.9745169078       79.0581431650       53.0760027856
  C         5.0703039402       80.6133020716       52.9323544645
  C         3.7795590568       81.3238358452       53.3348421067
  C         3.8465095853       82.7223231885       53.4127843624
  C         5.1730716901       83.4603459622       53.3030994101
  C         5.2106133875       84.8812534798       53.3101220069
  C         3.9510620024       85.6499203843       53.5378073917
  C         3.9651460289       87.0712109098       53.6049363540
  C         5.1927114190       87.8083163372       53.4813122616
  C         5.1766094893       89.3058441850       53.3649234765
  C         3.8526012372       89.9048072537       53.7349658260
  C         3.8423927971       91.3861219269       54.0162795540
  C         5.0742314753       92.2049281134       53.6746290598
  C         5.0640250810       93.6129724424       53.7835516215
  C         3.7981374414       94.3687858421       54.1297919004
  C         3.8691201989       95.8411378872       53.9234515208
  C         5.0675770283       96.5464621046       54.6026275172
  C         5.0808832843       98.0943139069       54.4005277040
  C         3.9117483448       98.7538344507       53.9751481183
  C         4.0917608917      100.0236456453       53.1649261237
  C         5.1622612404      100.9202291460       53.7705826136
  C         5.2286822125      102.3240041372       53.2547379440
  C         4.0097932805      102.9878037873       53.0096056959
  C         3.9455375402      104.5175743690       53.1761709281
  C         5.1478971025      105.2838012787       53.3059466170
  C         5.1977364779      106.8080386967       53.1514188605
  C         3.8797411567      107.5088535707       52.8290524300
  C         3.8321901320      108.8813295329       52.4548742258
  C         5.1314760742      109.5973835394       52.1250804541
  C         5.0904828940      111.0042097787       52.0145836775
  C         3.8260831064      111.7953000634       51.9042446079
  C         3.9632296544      113.1574625829       51.2156737491
  C         5.0704092059      114.0238385145       51.8603290491
  C         5.1220256501      115.4979678245       51.4316484425
  C         3.8667986415      116.1116629798       50.9434518317
  C         3.9097405345      117.6290932264       50.9061321611
  C         5.0113243959      118.1291512271       49.9272120443
  C         5.0211522594      119.7368693331       49.6029615924
  C         3.8551859231      120.6101222961       50.2515916296
  C         3.9059071048      121.9480618512       50.7316123816
  C         5.2652422335      122.5429727741       51.0567131590
  C         5.2293432111      124.1333825186       51.0827981416
  C         3.8570766728      124.8639403983       51.1153641053
  C         3.8922312084      126.4324121828       51.4659382497
  C         5.3183302011      127.0306576320       51.6313999695
  C         5.4177282733      128.3828152757       52.2217787282
  C         4.2430587889      129.0343105437       52.5889046209
  C         4.0984901264      130.4966338180       52.4175912309
  C         5.4205560545      131.2106394963       52.2980778098
  C         5.3305866298      132.6847782569       52.0358542931
  C         4.1467237672      133.4036259755       52.1451138584
  C         4.1927569504      134.8827243559       52.3354896378
  C         5.4142807559      135.5691644873       52.4238338049
  C         5.3808048657      136.9898182793       52.4931720088
  C         4.1521216407      137.7007148342       52.4970654212
  C         4.1411381373      139.1156661061       52.4202217606
  C         5.3686729250      139.8033578306       52.2808881217
  C         5.3780691161      141.2030919736       52.0371062288
  C         4.1673842931      141.8949755293       51.7938017761
  C         4.1666146850      143.2904201251       51.5981729893
  C         5.4193014507      144.0870889875       51.4451731154
  C         5.3728873239      145.4902566567       51.2926721288
  C         3.9988104405      146.2000263880       51.1306686464
  C         4.0040707382      147.6976781987       51.4715774351
  C         5.3039478560      148.4247861878       51.3675380486
  C         5.3805922673      149.8277611722       51.0866476243
  C         6.7051083429       -1.5026359125       51.1226403813
  C         6.6365255713        0.0929271050       51.4090923438
  C         7.6526350720        0.6870497000       52.3938077112
  C         7.6529639105        2.1721057546       52.6358529276
  C         6.4454306265        2.8397071384       52.4853374557
  C         6.4833386067        4.3115607077       52.0734364818
  C         7.7727869080        5.0966871461       52.2367199998
  C         7.8001353025        6.5095899183       52.1966036653
  C         6.4820094357        7.2099086806       52.2356736146
  C         6.5958844152        8.6530719806       51.8820486071
  C         7.8256258544        9.3406090384       52.0226864210
  C         7.8253653880       10.7530025491       52.0404054101
  C         6.6013191744       11.4510862281       51.9382780232
  C         6.5300756179       12.9146973271       52.1883853149
  C         7.7228461719       13.6254309362       52.3167866667
  C         7.7583555185       15.1676225891       52.2476067822
  C         6.4954585400       15.8009946080       51.6340482871
  C         6.4656882673       17.3041534462       51.6737186964
  C         7.7022842104       17.9908930409       51.0767351120
  C         7.6993611748       19.5008371363       51.3216063216
  C         6.4058380528       20.2726224928       51.5034613327
  C         6.5056264640       21.6556900072       50.7722418916
  C         7.6690164022       22.5267774243       51.3618870694
  C         7.6865349339       23.8982954871       50.6889406280
  C         6.4095943766       24.5154330417       50.1824902023
  C         6.4141246303       26.0176202288       50.1411417780
  C         7.6184587142       26.8689527219       50.5548371256
  C         7.7186063878       28.1277845549       49.6021121452
  C         6.3262652267       28.9230049100       49.3609000332
  C         6.3325794929       30.5366105999       49.4246882784
  C         7.7123594914       31.1463834785       49.7613835247
  C         7.6738780987       32.5602613648       50.4584050529
  C         6.4030852090       33.4292903145       50.2077658252
  C         6.4656207080       34.8706039379       50.6623938224
  C         7.7628960551       35.5820066388       50.2494340403
  C         7.6976656234       37.0837593170       50.5485649324
  C         6.4668719260       37.7919529249       50.6785840990
  C         6.4329045501       39.2666020907       51.0323060590
  C         7.6696421075       39.9487167316       50.9579609062
  C         7.6283399641       41.3386366426       50.3734615952