   14352
 i =     5000, E =       483.8938916593
  C         0.0825770249        0.9741545075       75.1537623666
  C         0.1135577571        2.3850154459       74.6128064695
  C         1.4258437026        2.8846815427       74.0024212643
  C         1.5199204483        4.3736971208       73.7181038788
  C         0.3159241301        5.0755971549       73.4338310190
  C         0.2868564305        6.4805878370       72.7916079763
  C         1.6604366622        6.8429073147       72.2088763540
  C         1.7810936799        8.0241971192       71.4603633984
  C         0.5584869110        8.8706527698       71.0445069431
  C         0.5001320047       10.2161330768       71.7863828225
  C         1.7830770811       10.8198710737       72.3873184653
  C         1.6561279489       12.3944859046       72.6747743158
  C         0.6570361240       13.1537494530       71.7859773136
  C         0.6910224025       14.7145419238       71.8035012432
  C         1.7670290871       15.3560423298       72.7009202286
  C         1.7215561367       16.8287908329       72.9532067003
  C         0.5127094852       17.5324201801       72.8698425077
  C         0.4888640511       19.0496516621       72.8643531787
  C         1.8238774027       19.7677194066       72.8012990379
  C         1.9388091128       20.9356544088       71.7767770977
  C         0.6252406285       21.7207721962       71.5050820597
  C         0.6273764760       23.0171404530       70.9287367835
  C         1.9468456175       23.7290507675       70.5456210487
  C         1.9226188246       25.2418219557       70.8690551022
  C         0.6558214734       25.9745790495       70.3673140362
  C         0.6223427875       27.4621019615       70.7640377362
  C         1.8655466494       28.1760581439       71.2647483086
  C         1.8125411987       29.6437097485       70.8321647803
  C         0.5741342287       30.4444487399       71.1667313717
  C         0.5576741629       31.8805398694       70.5670148238
  C         1.7579952087       32.5823690139       70.3657697755
  C         1.8002269161       34.0724814242       70.3568230230
  C         0.5799734076       34.7848038122       70.3120266043
  C         0.5934421753       36.1912580441       70.3294868745
  C         1.8266488106       36.8752062110       70.4321966645
  C         1.8105058479       38.2484704408       70.7178025400
  C         0.5541803044       38.9715312702       71.0467949370
  C         0.5358870122       40.4885799091       70.9833215787
  C         1.7432791767       41.1735291257       71.1304327536
  C         1.6878957289       42.4999195411       71.9223529170
  C         0.4464883787       43.3689009621       71.6147177294
  C         0.4032219873       44.7590535342       72.2236260623
  C         1.6162933122       45.4449494149       72.5302154673
  C         1.5525392979       46.9604579043       72.9336782750
  C         0.4703326717       47.6726180459       72.0352195809
  C         0.3523053880       49.2136072715       72.4586984181
  C         1.6455868890       49.9642473865       72.1151413723
  C         1.5769057219       51.4656571578       72.3252175979
  C         0.3184720388       52.2341520414       71.9054313423
  C         0.3074889954       53.6648919071       72.4608253792
  C         1.6009225771       54.4040054728       72.7159632478
  C         1.5546360365       55.9484808053       72.7866544989
  C         0.3137821970       56.5031530439       73.1938861980
  C         0.3161584911       57.6020251030       74.2992159967
  C         1.5551466676       58.4958697828       74.3451761302
  C         1.5628084015       59.8231508786       75.0792624239
  C         0.2642841631       60.5630275346       75.0270902185
  C         0.2381758793       61.9388774568       75.6737084060
  C         1.5809923184       62.6528263695       75.7085474880
  C         1.6274831148       64.1306941281       75.9849716380
  C         0.2977932511       64.8923765687       75.9929258387
  C         0.2807733670       66.2749286781       75.7262043120
  C         1.5191399640       66.8908627418       75.1495759421
  C         1.5212024273       68.4028741753       75.0608823415
  C         0.3057267448       69.1019643465       74.9992795097
  C         0.2635282647       70.5723964214       75.3858188179
  C         1.5748704780       71.2873737332       75.5395518169
  C         1.6265723734       72.7448761553       75.2944359593
  C         0.5081802834       73.4025284264       74.8057438088
  C         0.2771541247       74.8432248912       75.2775703930
  C         1.6256179038       75.6467428352       75.3266039664
  C         1.3842807675       77.1010635385       75.7388435597
  C         0.1248334582       77.7912103739       75.2565256797
  C         0.1660767599       79.3079557974       75.0688377961
  C         1.5290534345       79.9481814432       75.1421594219
  C         1.5376215774       81.4861907323       75.1356643676
  C         0.5721991071       82.0799893040       74.0550166682
  C         0.6956534598       83.4064575592       73.5773094982
  C         1.7161010816       84.2711867048       74.2722231303
  C         1.9090627546       85.5938218320       73.5160836342
  C         0.7296772945       86.4065390721       73.1778434816
  C         0.8021191403       87.8024874008       72.9458255225
  C         2.1285888537       88.4901000563       72.9310917238
  C         2.2675373453       89.9355198457       72.4757634002
  C         0.9411774184       90.6771210155       72.5511430767
  C         0.8518650491       91.9301569550       73.4120416497
  C         2.1570170543       92.7909177343       73.3913495896
  C         2.0291965392       94.2789267455       73.2309049713
  C         0.7231516996       94.8413949796       73.7716411775
  C         0.7144889145       96.3347164030       73.8179168045
  C         1.9554164567       96.9913035357       74.5004253031
  C         2.0313605487       98.4862659998       74.0224124100
  C         0.6882874712       99.1996995071       74.3462755690
  C         0.6724444175      100.7051331752       74.2517925052
  C         1.8766349582      101.4024317218       74.4121911089
  C         1.8732117083      102.8690185795       74.7259499372
  C         0.6510383861      103.5833410220       74.7698559222
  C         0.6550387077      104.9838020552       74.8572204363
  C         1.8577574726      105.6670557305       75.1144050547
  C         1.8295672279      107.1521015907       75.3286825643
  C         0.5992266821      107.8540323916       75.4073110207
  C         0.5097971332      109.1384265722       76.2249253666
  C         1.6927330978      109.8106450908       76.5619725433
  C         1.6481895278      111.3171815862       76.5144518118
  C         0.4586619961      112.0592635944       76.2408270187
  C         0.4250500462      113.6241752621       76.1934717252
  C         1.4857345879      114.2592716642       77.1561497089
  C         1.4672726981      115.7931257273       77.0202489229
  C         0.0946361706      116.4703788001       77.0564065468
  C         0.2072505689      117.9425914718       77.0055144421
  C         1.1834265219      118.5926522165       78.0366968265
  C         1.3919558140      120.1221624668       77.8313323644
  C         0.2920761479      120.8680557696       77.3074019457
  C         0.1807514478      122.3951529409       77.4870904158
  C         1.1634913218      122.9499505150       78.5313202833
  C         1.0827984665      124.3443363992       78.7188464199
  C        -0.0728791361      125.0827599097       78.1788272309
  C        -0.1531820781      126.5082644953       78.6151680594
  C         0.9821097012      127.2543102725       79.0442561234
  C         0.8690605730      128.8118001927       79.2175043861
  C        -0.0921604581      129.3975031078       78.0709941652
  C        -0.1504293764      130.9425004245       78.1626432521
  C         1.0944966930      131.6117058076       78.2003613501
  C         1.2103586578      132.9597500157       77.4236091653
  C        -0.0955422471      133.7948237216       77.5498254229
  C        -0.0273760188      135.2138932925       76.9442501223
  C         1.2008521890      136.0007338820       77.4391211754
  C         1.0837754806      137.4707010282       77.9367645863
  C        -0.0609131388      138.2445118323       77.2963959006
  C        -0.1362531835      139.7428762466       77.3738390359
  C         1.1374884007      140.4875295379       76.9724802505
  C         1.1132739846      141.9563121078       77.4625192133
  C        -0.1764307236      142.7733552580       77.2286569733
  C         0.1246137526      144.0466460210       76.3981971605
  C         1.3390988992      144.7553548656       76.5966826065
  C         1.3387644843      146.2585609026       76.4034835787
  C         0.0476053812      147.0332168667       76.6410992703
  C         0.1284223202      148.4973913837       76.0957068187
  C         1.3514477091      149.1790651588       75.8741827971
  C         1.4131071754      150.5210686338       75.2048967930
  C         2.6447620999        0.8279896667       74.8195662256
  C         2.6180413338        2.1462150580       74.1304752455
  C         3.9726377172        2.7877223199       73.9952013604
  C         4.0635552631        4.1246107792       73.5428479178
  C         2.8737007351        4.8591103324       73.3188389317
  C         2.8793954847        6.2902434056       72.9380237273
  C         4.1235913845        6.8902968006       72.7741365496
  C         4.2819818048        8.1508292593       71.9886471944
  C         3.1192903976        8.7653782198       71.5160629662
  C         3.0746673696       10.2808923120       71.6948364622
  C         4.2545570175       11.0306373258       71.9224604967
  C         4.1965081920       12.5004337768       72.3015500629
  C         2.9904955064       13.1505460931       72.5848381429
  C         2.9639233907       14.5560786232       73.2319101099
  C         4.2792193541       15.3704722276       73.0502349032
  C         4.1965819349       16.8405048849       73.5845347696
  C         3.0682305064       17.5833857198       72.7641306594
  C         3.0525168438       19.1006002014       73.0593330165
  C         4.3985296338       19.7818177820       72.9222731972
  C         4.4057535218       21.0780929725       72.1990878804
  C         3.1098016982       21.9010100575       72.1251382982
  C         3.1990193475       23.0645663017       71.1321144693
  C         4.5202837704       23.8020677538       70.9359147357
  C         4.4268831227       25.2995479159       71.3017029154
  C         3.1026071979       25.9565114187       71.1149741867
  C         3.1246697472       27.4302630940       70.8105737728
  C         4.3333560147       28.1398145076       70.6600711433
  C         4.2865156114       29.6380455626       71.0475634291
  C         3.0621049782       30.3687383338       70.4110212530
  C         3.0242690268       31.8755936208       70.7465735141
  C         4.2254639417       32.5958440772       70.8485927208
  C         4.2659541492       34.0641879902       70.5569408608
  C         3.0429566488       34.7738534413       70.4091025781
  C         3.0592649065       36.1817045094       70.4134199903
  C         4.2928627782       36.8803632026       70.4913608193
  C         4.2693954398       38.2802688279       70.6969870776
  C         3.0331042138       39.0117670891       71.0684300607
  C         3.0200856563       40.4005877429       71.2629607525
  C         4.2558147648       41.2236522054       71.0243149303
  C         4.2593806196       42.6548812682       71.6076108790
  C         3.0310609230       43.2917396140       71.9504664016
  C         2.9092926914       44.8672482602       71.8486821477
  C         4.2290253782       45.5763538184       72.2311794248
  C         4.3081972383       47.0310903853       72.7442487571
  C         2.9217640016       47.8379952535       72.9724004344
  C         2.8678610586       49.2687192780       72.2521113846
  C         4.1142384937       50.0527575801       72.3974307895
  C         4.0800373483       51.5405381439       72.1898963876
  C         2.8535444535       52.2251556444       72.1912180496
  C         2.8309412754       53.7062886549       72.5488531823
  C         4.0705928956       54.5185311149       72.1132692948
  C         4.0842834220       55.9319574665       72.7600436145
  C         2.8831010008       56.6789025435       72.9656348900
  C         2.8321330089       58.0927703804       73.6034124048
  C         4.0422472575       58.3305727399       74.5471108675
  C         4.0594043023       59.8320346203       74.8340195679
  C         2.7866209208       60.4947277305       75.2222944404
  C         2.8005553452       62.0191347600       75.0503559745
  C         4.1400430152       62.6571597963       75.5061015277
  C         4.1602970002       64.1479028283       75.5615736282
  C         2.8542150810       64.8244746222       75.7648437602
  C         2.7550803040       66.2296573737       75.1788810488
  C         4.0306591399       67.1301399463       75.0803468318
  C         3.9019609833       68.3716815079       75.9978294928
  C         2.7168404051       69.0823512839       75.6996255894
  C         2.8841861482       70.5657139229       75.3746480639
  C         4.0109447786       71.2677598560       76.1528127972
  C         3.9340357488       72.6492921605       76.4241159182
  C         2.6854939001       73.4184218013       76.1021729494
  C         2.6446596439       74.9100912651       76.2488424547
  C         3.7723255371       75.6092453800       76.6886448237
  C         3.9010031899       77.0469400100       76.3058240359
  C         2.6110822889       77.9088690276       76.2149482253
  C         2.7211287687       79.2267405453       75.4343143968
  C         4.0866539968       79.8287124221       75.2830767996
  C         4.1492176344       81.3502047759       75.2426338140
  C         2.9594998879       82.0962905278       75.0949138366
  C         2.9988475927       83.4478789635       74.4597166242
  C         4.3014165909       84.0846498297       74.0200406022
  C         4.2117237542       85.5851375335       74.4221768715
  C         3.2018697649       86.2952848251       73.4910354930
  C         3.3439568649       87.6544601025       73.1256068019
  C         4.5858816419       88.4339271716       73.4766299880
  C         4.5130488360       89.9144176816       73.5546194285
  C         3.3629668016       90.6411783866       73.2749300158
  C         3.3886870815       92.1431310911       73.2943694875
  C         4.6585220053       92.8142830864       72.7449215232
  C         4.6602554642       94.4244413011       72.8680244455
  C         3.2557515611       95.0241681258       73.2322911853
  C         3.2944481788       96.1379616572       74.3274598636
  C         4.6130995788       96.9942418502       74.4527266918
  C         4.5741316428       98.5257049088       74.3509309964
  C         3.2243115224       99.2077563521       74.6362466092
  C         3.1447829833      100.6172302958       74.7671930907
  C         4.4344959226      101.4003022152       74.6660354133
  C         4.4060384372      102.8132496098       74.7383978060
  C         3.1036847687      103.5564813119       74.8632909342
  C         3.0817829528      104.9445885973       75.1262976746
  C         4.2949868138      105.6300376260       75.4047900389
  C         4.2458931153      106.9918858707       76.0236066699
  C         3.0443013866      107.7205824717       76.0263739218
  C         3.0335531528      109.2256011423       76.2402597377
  C         4.1969454533      109.9015085995       76.6459603827
  C         4.1867827477      111.2594363543       77.3953120831
  C         2.7733830071      112.0200802986       77.3208337542
  C         2.8864475027      113.5480004172       76.9174052675
  C         4.0759153023      114.2502729856       77.6404979082
  C         4.0278884040      115.7762154545       77.4021552054
  C         2.6604750568      116.4773801403       77.3703228874
  C         2.5487772136      117.7776382144       78.2237905094
  C         3.8680723482      118.6425854810       77.9803618223
  C         3.8674606315      120.0494451145       78.6444241687
  C         2.5278261888      120.7873215907       78.6156737196
  C         2.4502602656      122.1846010412       78.7585945232
  C         3.7182945774      123.0143225215       78.5226843488
  C         3.5894535635      124.3775281819       79.3039869103
  C         2.3646211410      125.1554828313       78.7777347166
  C         2.3483504771      126.5793509957       78.8121371095
  C         3.6136182655      127.3515965276       79.0739731611
  C         3.5804693392      128.7692706300       79.6626186616
  C         2.2521322480      129.6337908390       79.4145949817
  C         2.4117275256      130.7984396782       78.3381043440
  C         3.5729078276      131.6660906370       78.7782575551
  C         3.4549119583      133.2096035069       78.7903049596
  C         2.4857659809      133.7812277506       77.7464239304
  C         2.5604967481      135.2955013489       77.3858343906
  C         3.6053994652      136.0663626533       78.2053459639
  C         3.6358313248      137.5781923700       78.0787097292
  C         2.4200497532      138.2876406789       77.8963361912
  C         2.4577284116      139.7370259012       77.3002127868
  C         3.6652997819      140.4634940480       77.4817579746
  C         3.6071543510      141.9637996399       77.7219088162
  C         2.3980055768      142.6767385656       77.7702182908
  C         2.3382797983      144.2329373011       77.6512666249
  C         3.7710121855      144.9487819574       77.5771030607
  C         3.8055282791      146.2138691328       76.6732373521
  C         2.5917814032      147.0920948281       76.7353004732
  C         2.6108203270      148.3409559158       75.8324152087
  C         3.8144906288      148.9615879941       75.4617021035
  C         3.8571850497      150.4028700113       75.0261768773
  C         5.1122037902        0.7620511512       74.7773424925
  C         5.1746574304        2.0813383186       74.2616609778
  C         6.4403005260        2.6917083082       74.0327309514
  C         6.5095604679        4.0333479632       73.5976120874
  C         5.3202940869        4.7520266708       73.3624035885
  C         5.3743099261        6.1128098148       72.9829519362
  C         6.6246263440        6.7710976714       72.9004350098
  C         6.6846771692        8.1696092661       72.6527033567
  C         5.5242295060        8.8894442850       72.2996489334
  C         5.5325452221       10.2950604499       72.2497546687
  C         6.7140370518       10.9792485312       72.6330256334
  C         6.6381854334       12.4183707230       73.0181460169
  C         5.4424320809       13.1453167045       72.9009662252
  C         5.4872322488       14.6623643104       72.9240228920
  C         6.7797712447       15.3258400466       73.3294832606
  C         6.8555150036       16.8331406737       72.9908116708
  C         5.6191806520       17.5859327534       73.6432533153
  C         5.5966879716       19.0750914367       73.1747324744
  C         6.9389185089       19.6268301094       72.6906465108
  C         6.9562372201       20.9047808485       72.1062309228
  C         5.6839698232       21.5876357421       71.5510937038
  C         5.6993534802       23.1075079740       71.6578323653
  C         6.8755872385       23.8293489219       71.9300574704
  C         6.9518697020       25.1741543952       71.1647907565
  C         5.6447572092       25.9977567411       71.2802940146
  C         5.6754521215       27.4262346079       70.8090847961
  C         6.8530028173       28.1506004360       71.0476182928
  C         6.8351377669       29.6852974639       71.2293676247
  C         5.5734987317       30.3609345319       70.5944573299
  C         5.5487106393       31.8728753153       70.9363829120
  C         6.7608933899       32.5706256728       70.8299872507
  C         6.7430622748       34.0465987073       70.5736396125
  C         5.5114932510       34.7612660542       70.4889081519
  C         5.5245978548       36.1739190206       70.4295759916
  C         6.7580186135       36.8772176267       70.4455921118
  C         6.7927442291       38.3840692255       70.4409244408
  C         5.4575839352       39.0149850453       70.6650596875
  C         5.4497583128       40.5249222575       70.7707203534
  C         6.6920545771       41.2006466940       71.2799421372
  C         6.7414064564       42.7255038562       71.1088263655
  C         5.4648380838       43.4977914448       71.3228378976
  C         5.5794112676       44.8285888941       72.0777798943
  C         6.6802757841       45.6668109016       71.4316080129
  C         6.6916644161       47.1633150644       71.5880822607
  C         5.3139590602       47.8507995086       71.8489571629
  C         5.4081676534       49.3118367102       72.3968422434
  C         6.6549470965       49.9797398685       72.4645931016
  C         6.5911521560       51.4511133188       71.8857079084
  C         5.4017869332       52.2530382548       72.5756042749
  C         5.3984156079       53.7394291853       72.2297484570
  C         6.7012459006       54.4518466501       72.3473538273
  C         6.6233798997       55.7267169392       73.1048126954
  C         5.3048827289       56.2584353505       73.6614770765
  C         5.3658492818       57.7800531236       73.9504620445
  C         6.5764273662       58.4900600972       74.1193844560
  C         6.5455866460       59.7748845388       74.9676303874
  C         5.3142548370       60.6438955466       74.5414255533
  C         5.3469438206       61.9842056603       75.2521016367
  C         6.6563022285       62.7278456419       75.0506789390
  C         6.6354275069       64.1334754241       75.0455518134
  C         5.2956962033       64.8865736950       74.8619354988
  C         5.3822329243       66.3894707255       75.1517392764
  C         6.5399609353       67.0036708749       75.6560982077
  C         6.5247645149       68.3583983200       76.2568389819
  C         5.2009907489       69.0569492723       76.5251309400
  C         5.3500835096       70.5253314625       76.0050659729
  C         6.4785815602       71.2326083082       76.7388047270
  C         6.4420970160       72.6897533494       77.0264133722
  C         5.2515381467       73.4576900116       76.3771531392
  C         5.0793792579       74.8844636118       76.9129655914
  C         6.3413596904       75.6238916809       77.3931562990
  C         6.3925044056       77.1046631242       76.9615856173
  C         5.2850309344       77.5756357460       75.9465860754
  C         5.2642124458       79.0916429795       75.5896539562
  C         6.4900398440       79.8876968704       76.1115817866
  C         6.7344839449       81.2141369055       75.3970474940
  C         5.5069267585       81.9502899025       74.8864013073
  C         5.5520226683       83.3115969390       74.5272696586
  C         6.7319511138       84.1231556527       75.0260383998
  C         6.5857643406       85.6121080147       75.3235130514
  C         5.5695917417       86.3020163699       74.3438865310
  C         5.3637121004       87.8332850409       74.6254472299
  C         6.6926656281       88.5440618589       74.9424306192
  C         6.8960462351       89.9717827488       74.4382608606
  C         5.8471660474       90.6403978631       73.6069705079
  C         5.9143331099       92.0341414123       73.3134245758
  C         6.9612447594       92.8478474826       74.1368615884
  C         7.1772946754       94.2427809440       73.4937815078
  C         5.8539323696       94.9777674647       73.6712753449
  C         5.8529050367       96.3749405477       74.1935727811
  C         7.1339110428       97.1317563281       73.9237481693
  C         7.1293188084       98.4861000363       74.5726187041
  C         5.7986515011       99.2372819036       74.4478715439
  C         5.7206666003      100.6228595413       75.0898018796
  C         7.0134138494      101.4555468598       74.8081020729
  C         6.8632063003      102.7937856150       75.5829248113
  C         5.6557533230      103.4942395652       75.3018147024
  C         5.6680932261      105.0009960796       75.2774098062
  C         6.8930690079      105.6547494850       75.5876254303
  C         6.7966032649      106.9532166391       76.4080518692
  C         5.5561478956      107.8139788294       76.0181116797
  C         5.4492643047      109.0532169364       76.9878815858
  C         6.7807121371      109.8600168299       77.0653198868
  C         6.6750160372      111.3836377169       76.9461993148
  C         5.4297045274      112.0703589908       76.9524165080
  C         5.4150174051      113.5780982483       77.1929135467
  C         6.5967454495      114.2709467111       77.5030360930
  C         6.5028692551      115.6608548787       78.0549825007
  C         5.2296130208      116.4395037377       77.7403879168
  C         5.1490138778      117.8206708541       78.4249704918
  C         6.4840719493      118.5852072113       78.1186174629
  C         6.4596888787      120.0967355021       78.4635181937
  C         5.0992166558      120.7698092885       78.7147547886
  C         5.0835877829      122.3066579899       78.7171432585
  C         6.2300181347      122.9665178239       79.2339385723
  C         6.1122115970      124.3824842306       79.8314000870
  C         4.9102702576      125.1563060137       79.2258938367
  C         4.9115662282      126.5555174230       79.1173529172
  C         6.1620124659      127.3185613595       79.6073158848
  C         6.1554762902      128.7458452844       78.9841169992
  C         4.8885538510      129.5571690398       79.3561800841
  C         4.8811875427      130.9599670043       78.8065657279
  C         6.0700594209      131.6400840863       78.5323403638
  C         6.0655483594      133.1306865679       78.1234712447
  C         4.8830116128      133.9195494307       78.8455567056
  C         4.9241055334      135.3783572350       78.2915193653
  C         6.1722517527      136.0473205866       78.2859237820
  C         6.1678709434      137.5448455958       78.3577061452
  C         4.9870047204      138.2392487582       77.6622153118
  C         4.9417145686      139.7595995016       77.9419993959
  C         6.1427413064      140.5022763117       78.0504074521
  C         6.1630970290      142.0662476146       77.9377710974
  C         4.8811221321      142.6922717023       77.3619273496
  C         4.9535529941      144.0794041614       77.1323710567
  C         6.2738369754      144.8497590897       77.0755205613
  C         6.3034231830      146.3827840578       77.0923003944
  C         5.1303721236      146.8454184857       76.1919574742
  C         5.0835180647      148.3870692199       76.0364175143
  C         6.3004676788      149.0710690419       75.8498828130
  C         6.3272996507      150.3669400915       75.0783508856
  C         7.5792641941        0.6302847832       74.6704952436
  C         7.6432542730        1.9619743324       74.2040458271
  C         8.9076139657        2.5688666739       73.9310301507
  C         8.9600283012        3.9420165674       73.5926241889
  C         7.7609884888        4.6710002091       73.4307938383
  C         7.8141186093        6.0500023925       73.1265335085
  C         9.0548214120        6.7200768568       73.0690050137
  C         9.0990985473        8.1236397991       72.9162034240
  C         7.9075750781        8.8533092701       72.7538310378
  C         7.9270970739       10.2632471737       72.7487749270
  C         9.1578428170       10.9472234917       72.9046419610
  C         9.2005823116       12.3507650673       73.0627837454
  C         7.9927098536       13.0787824433       73.1287533914
  C         7.9603199181       14.5589254457       73.4076926315
  C         9.3000015097       15.2129871029       73.2092950792
  C         9.3602848638       16.7053880624       73.2991583807
  C         8.1968774608       17.5069439944       73.3957693430
  C         8.1657513550       19.0570552065       73.4333013485
  C         9.5868003963       19.6879073054       73.0833003252
  C         9.5038847290       21.0590435545       72.2583261282
  C         8.1782113067       21.7606996076       72.4664271032
  C         8.1676240810       23.1649409127       72.3425461863
  C         9.4625605061       23.9288343715       72.1216366172
  C         9.5327440001       25.3158447643       71.4616671918
  C         8.1740869651       25.9979810720       71.5383803447
  C         8.0403615431       27.4947446970       71.8045025379
  C         9.3555117916       28.2479924897       71.4811185784
  C         9.3748044267       29.5637258660       70.9133504655
  C         8.0933109211       30.3601625002       70.6798677282
  C         8.0624915567       31.7854554411       70.5794064621
  C         9.3422286620       32.5601093418       70.7312969692
  C         9.2893907773       33.9816071798       70.6755884017
  C         7.9799524153       34.7389778147       70.5479448548
  C         7.9858597167       36.1572161893       70.4790455025
  C         9.2896322760       36.9260906610       70.5336439896
  C         9.2033849347       38.2935700713       71.1769835215
  C         7.9603031540       39.0712694201       70.7916355620
  C         7.8892126476       40.4734260317       71.3332920994
  C         9.2076578891       41.2114418709       71.3199160642
  C         9.1286815878       42.6638471971       71.8128261420