   13439
 i =     2000, E =       416.9109920895
  C        -1.6885151295       -2.2849918042       55.2467243569
  C        -1.7174056660       -0.9027923212       55.4102774063
  C        -0.4631785138       -0.0846192821       55.4759831407
  C        -0.4855682531        1.3006013187       55.6729280738
  C        -1.7464694299        2.0709799620       55.4634817230
  C        -1.7296232778        3.4953894462       55.4205773814
  C        -0.5127289349        4.2264154018       55.5143576196
  C        -0.5133663027        5.6321136748       55.3405020560
  C        -1.7589546940        6.2980589008       55.1485914743
  C        -1.8197533489        7.7099241748       55.0464643542
  C        -0.5723046251        8.5276114749       55.1747071445
  C        -0.6043773210        9.8989708655       54.8894642509
  C        -1.8969378762       10.4949519588       54.3153678235
  C        -1.9157530733       12.0920885384       54.3245232676
  C        -0.5392781867       12.7773683263       54.5684470119
  C        -0.5654645735       14.2735870107       54.5060540686
  C        -1.7030779012       14.9729501733       55.2274864632
  C        -1.7149566791       16.3882661197       55.3247087491
  C        -0.6495358585       17.2810052039       54.6351691089
  C        -0.5013887577       18.5859880767       55.4568562836
  C        -1.7463740359       19.2925888968       55.8884691403
  C        -1.5595554792       20.6391161621       56.4804908482
  C        -0.3592375138       21.3357311048       56.4330013920
  C        -0.3425061584       22.8256315165       56.3496144474
  C        -1.6486271152       23.5439624269       56.7635213127
  C        -1.7045470570       25.0146135195       56.3617093152
  C        -0.5002478230       25.7203144011       56.3086946954
  C        -0.4644850735       27.1839701117       56.5513064137
  C        -1.7002716374       27.8574249207       56.7204238383
  C        -1.7306149100       29.2527809097       56.8653003571
  C        -0.4955777311       30.0581776579       56.6886761420
  C        -0.4335758771       31.3849926345       57.3910486991
  C        -1.7889032628       32.0832718304       57.6958352146
  C        -1.7157780217       33.6172435958       57.4097720816
  C        -0.4383604852       34.2543481091       58.0889022791
  C        -0.4992457474       35.8036589983       58.0064195585
  C        -1.7227030892       36.5126597998       57.9237068806
  C        -1.7376911495       38.0009347203       57.5627836050
  C        -0.4837351085       38.7545181620       57.9834700111
  C        -0.5509735951       40.1589985906       58.0199763555
  C        -1.8583855192       40.8949339134       57.9272876916
  C        -1.7992811733       42.4383605597       58.0406775093
  C        -0.4463638464       43.0469221686       58.6116604536
  C        -0.4634665410       44.5422001442       58.3104835547
  C        -1.7211160183       45.2141929678       58.5283618992
  C        -1.7189898915       46.6153804269       58.4444249740
  C        -0.4940255551       47.4240983960       58.1136058594
  C        -0.4944926162       48.7515317962       58.9541446380
  C        -1.7568705450       49.5942204846       58.7793472656
  C        -1.7860215772       51.0502600711       59.1134762904
  C        -0.4540198809       51.7418334526       58.9077567059
  C        -0.4286956738       53.1952928982       59.2656499737
  C        -1.7043841916       53.9298301581       58.9358393887
  C        -1.7688291225       55.4141486975       59.1946130687
  C        -0.3731954917       56.1543197695       59.2251111942
  C        -0.3890345071       57.6618731643       58.6752870147
  C        -1.7697946628       58.0954613382       58.1385952375
  C        -1.8294939675       59.4271374620       57.3768761026
  C        -0.5047417312       60.2428542585       57.4245071100
  C        -0.5749913517       61.5690270942       56.9806227364
  C        -1.9147834476       62.1970949520       56.6483755379
  C        -1.9541019324       63.7007519657       56.6360509013
  C        -0.6679708642       64.3755482253       56.0587511443
  C        -0.6698967110       65.8882403974       56.2593000952
  C        -1.9868176082       66.6484955174       56.4040277846
  C        -1.9586044927       68.0141004006       55.6741571003
  C        -0.6232756607       68.7357026873       55.6735608809
  C        -0.6990076139       70.2516523921       55.8620444449
  C        -1.9502831080       70.9859495745       55.4274080342
  C        -2.0330944173       72.4749473332       55.7915417387
  C        -0.6890136112       73.1788293405       55.3533365938
  C        -0.6668248867       74.7347677585       55.5451130994
  C        -1.9457676673       75.3417208424       56.1503441003
  C        -1.9162495996       76.9256924063       56.0999553983
  C        -0.5911132779       77.5251200145       56.6814643048
  C        -0.5431240081       79.0583392836       56.8874380843
  C        -1.9412268088       79.7308548911       56.8629410799
  C        -1.8992740285       81.1805860658       56.5146812825
  C        -0.6769129080       81.8896841793       56.4013578241
  C        -0.6430609497       83.3825546340       56.3941761638
  C        -1.8167766540       84.0661777954       56.0910153198
  C        -1.6859735711       85.4738814421       55.5088945210
  C        -0.5125637457       86.2828988404       56.0822643533
  C        -0.4952295802       87.7379738412       55.7654357241
  C        -1.8392527974       88.4147349115       56.0106475544
  C        -1.8473413241       89.9830471476       55.7960936348
  C        -0.4833940981       90.6025852267       55.4490279917
  C        -0.4601530634       91.9876561878       55.1441180979
  C        -1.7859857854       92.7770480295       55.0303708341
  C        -1.6804736420       93.9923781065       54.0511854714
  C        -0.4469147841       94.8266410335       54.3621313157
  C        -0.3811711439       96.1764418058       53.6670688089
  C        -1.7142320678       96.8941284291       53.3213146059
  C        -1.7286656440       98.3608198040       53.7454625617
  C        -0.4052509472       99.0792974569       53.5345425635
  C        -0.4503291252      100.4744488414       53.5175991484
  C        -1.7886669699      101.2371710472       53.5022470655
  C        -1.7804654118      102.6341092902       53.6359349197
  C        -0.4373199620      103.3915149443       53.7582953429
  C        -0.5138671660      104.6846460592       54.6256839325
  C        -1.8094619280      105.4510344741       54.4224248796
  C        -1.7683951450      106.9632058087       54.7238852745
  C        -0.4585139454      107.4519882262       55.4340983892
  C        -0.4996185158      108.9816257369       55.5343952412
  C        -1.7135967428      109.6867764181       55.7511948611
  C        -1.7038354604      111.1129326294       55.8365424371
  C        -0.4350855414      111.9465648466       55.5884618787
  C        -0.2948603291      113.1357059465       56.5888414129
  C        -1.5711771649      114.0566537409       56.7396433745
  C        -1.6060389629      115.2775709533       55.8551567550
  C        -0.3216115014      116.0704677250       55.7868979530
  C        -0.3180728999      117.4642233593       55.6522015046
  C        -1.6419362864      118.2181817424       55.7666084744
  C        -1.5451591635      119.4681022777       54.8271200265
  C        -0.3074904231      120.3656929387       55.1688123223
  C        -0.2382186013      121.7436899439       54.5416600747
  C        -1.4637757549      122.4117298151       54.3503339597
  C        -1.5050066510      123.9045992174       54.3003696335
  C        -0.2460028798      124.6599249019       54.4823834458
  C        -0.1293328620      126.0420371488       53.7352783624
  C        -1.4903402589      126.8282808323       53.4605994155
  C        -1.4462377487      128.3256269320       53.8130922160
  C        -0.1477919005      129.0923334228       53.7487586830
  C        -0.1520316478      130.4818395123       54.0159438362
  C        -1.4603308941      131.1953172849       54.3254165622
  C        -1.3501948187      132.6899168186       54.3548699068
  C        -0.1185343801      133.3304699559       54.6619148373
  C        -0.1231379219      134.7021444878       55.0223257325
  C        -1.3529222953      135.3935519937       55.2094254436
  C        -1.3509223530      136.7391624093       55.6575489125
  C        -0.1165239700      137.4108667229       55.8616800887
  C        -0.1266268136      138.8623523920       56.2632050646
  C        -1.3526947503      139.5496071337       56.3581677956
  C        -1.5097890571      141.0126078683       55.8725892375
  C        -0.1929380004      141.8064610359       56.0211629199
  C        -0.2915634861      143.1637332248       55.2468380903
  C        -1.4950264110      143.9478717475       55.7548194108
  C        -1.5854657082      145.3532573747       55.2977630275
  C        -0.4118211639      146.0804075135       54.9758569646
  C        -0.4277079892      147.5995375194       54.6758790303
  C         0.8794067455       -2.2095600640       54.9977192653
  C         0.8322311907       -0.6910204791       54.8962229613
  C         2.0660735650       -0.0980896384       55.5761340438
  C         2.1216372920        1.4258720325       55.4563510927
  C         0.7821389980        2.1052059336       55.8009969570
  C         0.7514668692        3.4990844327       55.8075116256
  C         2.0131780430        4.2720179830       55.6327751905
  C         1.9882108593        5.6621095543       55.3675372367
  C         0.7320988155        6.3383203685       55.2942898111
  C         0.7157140038        7.7407305877       55.1174925293
  C         1.9394293906        8.4320038613       54.9059556402
  C         1.8737494753        9.8671975047       54.4952626433
  C         0.6678357678       10.5699811771       54.4546745407
  C         0.6739748362       12.0539031201       54.5014916356
  C         1.9019782842       12.7543896382       54.4248039828
  C         1.9611688082       14.2516479697       54.0633357215
  C         0.5986872631       15.0052611246       54.1811432475
  C         0.7174287434       16.5572381538       54.2852431514
  C         1.9052754774       16.9895236261       55.1437057689
  C         1.9564839533       18.3816541203       55.6951753574
  C         0.8009273674       19.1011408500       55.9905151197
  C         0.8024521135       20.5951355477       56.2179627073
  C         2.1282384514       21.2707722730       56.4053026414
  C         2.1084509321       22.7904308253       56.6634535256
  C         0.8412486452       23.5574833885       56.3541599831
  C         0.8262002765       25.0570384431       56.5245789935
  C         2.0183730567       25.7895160298       56.5694046841
  C         1.9755791169       27.2001946056       56.4234789851
  C         0.7483082080       27.9094848146       56.4706626002
  C         0.7203986764       29.4049804099       56.4129746939
  C         2.0643145748       30.0617601710       56.5943289516
  C         2.0910811282       31.4243204735       56.9475414671
  C         0.8098483707       32.0541823107       57.4379794821
  C         0.8221490041       33.5486693500       57.5468584349
  C         2.0479983715       34.3209359824       57.0872360015
  C         2.0768449792       35.7634876969       57.6290841920
  C         0.7478826872       36.5338044743       57.4535179953
  C         0.8145060176       38.0115184098       57.9444598993
  C         2.0088610408       38.6972484043       57.6977752587
  C         1.9543037622       40.1385068328       57.3686890506
  C         0.6257872595       40.9136911671       57.4265508045
  C         0.8697871090       42.2662190182       58.1851840909
  C         1.9331115038       43.0774448526       57.4058775899
  C         1.9520844169       44.5475291189       57.6814661634
  C         0.7644564804       45.2374053996       58.0662531713
  C         0.8347819309       46.6941535962       58.3327146735
  C         2.0117917148       47.4400708769       58.1418609885
  C         1.9212793101       48.9902025664       58.0359299942
  C         0.7538998350       49.5759812104       58.6048957898
  C         0.7708623453       50.9374468259       59.3348474026
  C         2.1606940422       51.6156852338       59.2770282518
  C         2.2142434246       53.1784794667       59.4198531442
  C         0.8187439761       53.8692096263       59.3136866556
  C         0.7617680727       55.2483942623       58.5871537030
  C         2.0881659947       56.0575244953       58.4825455956
  C         1.9889069187       57.3738986802       57.7228965274
  C         0.7685586587       58.0676219709       57.7041161118
  C         0.7991596262       59.5044793266       57.3162179440
  C         1.9941424783       60.1733336042       56.9665617203
  C         1.9001272704       61.5720283672       56.4644714298
  C         0.6621658526       62.2247751249       56.4072165744
  C         0.6408005188       63.7094727829       56.5477152638
  C         1.8359836302       64.4454536389       56.6963052137
  C         1.8248957918       65.9566257894       56.6392463387
  C         0.5962298659       66.6320951671       56.4669894391
  C         0.5993409085       68.0639374418       55.9955194176
  C         1.8450950024       68.8514362160       56.4903272951
  C         1.8446368306       70.2542232702       55.8176487856
  C         0.4864161975       70.9931659445       56.0987430789
  C         0.4763618943       72.5038603240       56.0259831135
  C         1.7451399006       73.2789297202       56.1584852581
  C         1.7874584615       74.6860258535       56.0693573245
  C         0.5293962136       75.4436619065       55.7846110799
  C         0.5889790649       76.8458660383       56.3531288639
  C         1.8579430324       77.6208473013       56.0726058568
  C         1.8640531043       79.0390944793       56.0043863203
  C         0.5612338099       79.7584290925       56.0540485681
  C         0.5432976416       81.1536684356       55.9625842457
  C         1.8456957819       81.9194252847       55.9184735553
  C         1.8874808046       83.3429131907       55.9610057452
  C         0.6962621329       84.0547434876       56.1685676945
  C         0.6612291830       85.5693329101       56.2591621343
  C         1.9190446793       86.2691798001       55.8763153965
  C         1.9229685859       87.6887988188       55.6423081788
  C         0.7145920720       88.4431256802       55.6266763852
  C         0.7199815122       89.8550285479       55.4513649543
  C         1.9454721786       90.5394682926       55.2599104190
  C         1.9682427616       91.9538199308       55.0690270931
  C         0.7580445677       92.6814561779       54.9826398829
  C         0.7203931407       94.1712058962       54.7854343006
  C         2.0468321591       94.8113889501       54.6216905485
  C         2.0734967315       96.2016305703       54.3305175446
  C         0.8297780827       96.8686049668       53.8212630430
  C         0.8787338245       98.3625638046       53.9000722735
  C         2.0985421794       99.0413228430       54.1013522049
  C         2.0837191189      100.4481861486       54.1546226180
  C         0.7605793925      101.1687836671       54.1216049886
  C         0.7387788137      102.5540323140       54.3074565895
  C         2.0446404410      103.3084915226       54.5429157637
  C         2.0607777294      104.7822621814       54.1942086835
  C         0.7503040199      105.5358572658       54.3346472488
  C         0.7708194073      106.8849436952       54.6971941358
  C         2.0927394422      107.5617860366       54.9677083180
  C         2.0466144024      108.9452483551       55.0858896759
  C         0.7069607890      109.7078073048       54.9603892619
  C         0.8614575754      111.0916561868       55.5980156429
  C         2.1061833077      111.7559799319       55.5860609142
  C         2.1322118104      113.2301312721       55.7913388237
  C         0.9617308563      113.9181156553       56.1527386491
  C         0.9434263056      115.3892805640       56.2832431349
  C         2.1423181748      116.1375839731       56.2875759879
  C         2.1308255858      117.6560524967       56.1818430487
  C         0.9191674311      118.3042742791       55.9580887498
  C         0.8908353636      119.7688011217       55.5964962177
  C         2.2135693596      120.4720151115       55.4669501068
  C         2.2585289440      121.8545442321       55.1655631065
  C         1.0548743151      122.4981548932       54.7798530068
  C         0.9639726314      123.9884880484       54.7644307898
  C         2.2971194883      124.7208487177       54.6956166418
  C         2.2798365088      126.1216740340       54.6168601370
  C         0.9406741928      126.8977755631       54.5267507404
  C         1.1381278632      128.3118592650       53.9749952069
  C         2.3261041594      128.9868360171       54.3516801405
  C         2.3263603640      130.4728234156       54.5495587272
  C         1.1107990497      131.1980578979       54.4314611065
  C         1.1061991227      132.5965024137       54.6916655473
  C         2.3314349756      133.2718246442       54.9502801294
  C         2.3404129766      134.6723910443       55.1638361939
  C         1.1087535874      135.3684110689       55.2587129769
  C         1.1131247444      136.7396820169       55.5986409813
  C         2.3456763186      137.4567852339       55.6436822068
  C         2.3642345507      138.9302162876       55.8763628906
  C         1.1603837427      139.6088856463       56.0993278648
  C         1.0437434834      141.0107522285       55.4931990517
  C         2.3330958315      141.8451693752       55.7661136043
  C         2.2954076887      143.2301442107       55.0888642792
  C         1.0137804019      143.9557924316       55.3338688303
  C         0.9777525819      145.4807472632       55.3987437186
  C         2.1098580556      146.1441714469       54.5379139643
  C         2.1189170350      147.6381844781       54.8921580402
  C         3.4468721964       -2.1019608184       54.9464815045
  C         3.2750780099       -0.7878884374       55.7451507214
  C         4.5153382518       -0.1098064537       56.3257295150
  C         4.4308795445        1.4088256906       56.5895698874
  C         3.2525872103        2.1080808004       56.2167016695
  C         3.2326479496        3.5817424922       55.8990973125
  C         4.4473662566        4.2477402846       55.7939813700
  C         4.5384988661        5.6300497849       55.2444536867
  C         3.2180973689        6.3582819953       55.2113008638
  C         3.1845694530        7.7632106462       55.0016653475
  C         4.4029792290        8.5101045339       54.9098067082
  C         4.3956494261        9.9273516474       54.7544874313
  C         3.1573743584       10.6098732569       54.5902467282
  C         3.1257803328       12.0333402879       54.4832427838
  C         4.3270124568       12.7619026128       54.4028023818
  C         4.4703058521       14.2024891397       54.7815022465
  C         3.1413333511       14.9074775547       54.8039858801
  C         3.2213921023       16.3939761095       54.7651507055
  C         4.4394980015       17.0899950643       54.8175847328
  C         4.4959377063       18.4729862419       55.4637092589
  C         3.1583240842       19.2506528311       55.2401955397
  C         3.2698843006       20.6376033541       55.9128446727
  C         4.4668509504       21.5021864569       55.4586797472
  C         4.5272934659       22.8065809824       56.2462931381
  C         3.2943389491       23.5283031556       56.6824696919
  C         3.3225667230       25.0597595275       56.7000179928
  C         4.5091817448       25.7665046407       56.4605682573
  C         4.4748740879       27.2230793164       56.0722942826
  C         3.2629668048       27.9046425980       56.1305283560
  C         3.2801094176       29.3653348646       56.3974566601
  C         4.5250991910       30.0521558447       56.4276694560
  C         4.5358581254       31.4401428359       56.6584393161
  C         3.3236578249       32.1115306077       56.9613948917
  C         3.3448184896       33.5400904476       57.3587107814
  C         4.5381357203       34.2459023694       57.2906861012
  C         4.5596352455       35.7408820651       57.1240159702
  C         3.2976034570       36.4509770677       57.5249085746
  C         3.2126269307       37.9274398250       57.1641825107
  C         4.3621960825       38.6184236954       56.7184226851
  C         4.3954801415       40.1574733838       56.6659238799
  C         3.2839972171       40.9028996522       57.4061211979
  C         3.1203148817       42.3959001460       57.0227905425
  C         4.4098962550       43.1465172607       56.7960249137
  C         4.4155131004       44.5294962468       57.0178425467
  C         3.1722403844       45.2648334985       57.4677596496
  C         3.1991837149       46.6709600981       57.6401278941
  C         4.4426322588       47.4841991733       57.4378376698
  C         4.4563834095       48.8828985182       57.6675494465
  C         3.2286327865       49.7965441691       57.8694249646
  C         3.3521549907       50.9609799999       58.8851300508
  C         4.6834117541       51.7430737229       58.8891034500
  C         4.5337561611       53.1802229389       58.3461259947
  C         3.3255114389       53.8791208004       58.5588584621
  C         3.3392323510       55.4122369168       58.4922519622
  C         4.5578077834       56.0972986586       57.8928405536
  C         4.5139406969       57.4592826843       57.4836633989
  C         3.2644038090       58.1293599312       57.4385153708
  C         3.2364572414       59.5024726971       57.0642319428
  C         4.4366826950       60.2302882025       56.8268436511
  C         4.4213663814       61.6446001742       56.6208279707
  C         3.1903683744       62.3347799943       56.5486425178
  C         3.1644670932       63.7575086071       56.5475129275
  C         4.3751828417       64.4979513678       56.4145018993
  C         4.3599679600       65.9271343781       56.2919913833
  C         3.1368554684       66.6563042305       56.3676201679
  C         3.1634717797       68.0784749888       56.2612286609
  C         4.3743775326       68.8031065233       56.0680274935
  C         4.4087756253       70.3340612504       56.0595178826
  C         3.0569595944       71.1085832427       56.2572187118
  C         2.9299164674       72.5294130782       55.5708563257
  C         4.2470769467       73.2467903125       55.6605367514
  C         4.2643795696       74.6567616030       55.7294003164
  C         3.0337302193       75.4938047083       55.8268917208
  C         3.0563741451       76.9214372542       55.8122664955
  C         4.2500402450       77.6336174122       55.5209820633
  C         4.2834289151       79.0601249169       55.6264938309
  C         3.0740243115       79.7686690820       55.8246294300
  C         3.0699602277       81.2021346017       55.8052026872
  C         4.2897132407       81.9194830933       55.6727669550
  C         4.2951093119       83.3449605581       55.6633221299
  C         3.0927215504       84.0764458474       55.8032901417
  C         3.1063761642       85.5123704853       55.7376921331
  C         4.3170825569       86.2124633702       55.5435382338
  C         4.3346095591       87.6355009083       55.4363286877
  C         3.1355803087       88.3802435487       55.4422536765
  C         3.1516433039       89.7994767488       55.2819738449
  C         4.3782775934       90.4938281943       55.1574026513
  C         4.4070271687       91.9138941324       55.0088107010
  C         3.2000763012       92.6536716136       54.9595571110
  C         3.2376279007       94.0723362721       54.7807985085
  C         4.4644851934       94.7665924793       54.7112313322
  C         4.4849490718       96.1851706064       54.5673012683
  C         3.2889059744       96.9062381312       54.3908661070
  C         3.3034554381       98.3222239495       54.2623751343
  C         4.5223345427       99.0367830867       54.3266109623
  C         4.5362982815      100.4570994124       54.3234027506
  C         3.3047811515      101.1522606041       54.3430686784
  C         3.2642391481      102.6244011158       54.5913202863
  C         4.5733603145      103.3298393025       54.4372562059
  C         4.5788683259      104.7497133929       54.4196419348
  C         3.2843550475      105.4574877812       54.2440105427
  C         3.3750902292      106.9161145116       54.5365503684
  C         4.5945560317      107.6143288398       54.5111936534
  C         4.5804648860      109.0210634400       54.5846382236
  C         3.2647229942      109.7334619906       54.6570293259
  C         3.2620060886      111.1222972173       54.8396117730
  C         4.5523911011      111.8948661760       54.7609457057
  C         4.7613251397      113.1581397307       55.6331955148
  C         3.4569324300      113.8997396553       56.1746682593
  C         3.3896960850      115.4120274786       55.9092546348
  C         4.6003072465      116.2047635216       55.5259085162
  C         4.6202937470      117.6653241235       55.8219805833
  C         3.4139899659      118.3861844363       55.9332275906
  C         3.4312736559      119.7849360633       55.7017624713
  C         4.6584359005      120.4812786670       55.6690784776
  C         4.6729493636      121.8884956451       55.5614154471
  C         3.4702365321      122.5851910580       55.3222560844
  C         3.4989154619      123.9957813857       55.1862943310
  C         4.7125795123      124.7079039928       55.3809707346
  C         4.7194296953      126.1292718530       55.3271924739
  C         3.4375571994      126.8768488572       55.2055539549
  C         3.4506695985      128.2687712836       55.0818390165
  C         4.7460301016      128.9894026227       55.1237443621
  C         4.7564802197      130.4089315957       55.0557145638
  C         3.5421969684      131.1425437272       54.8724604174
  C         3.5533974283      132.5538194556       54.9958769795
  C         4.7834438385      133.2429662419       55.1735985656
  C         4.8017999143      134.6592888813       55.2720993725
  C         3.5744261345      135.3689562103       55.3030118085
  C         3.5833982395      136.7771090461       55.4702378015
  C         4.8268839417      137.4955186758       55.4902608761
  C         4.8595611153      138.9223044692       55.4947481482
  C         3.5924813472      139.6683616124       55.3809558070
  C         3.5795240575      141.0698269943       55.3437991882
  C         4.8461090846      141.8543922810       55.5155640176
  C         4.8130553662      143.2420974553       55.2632120336
  C         3.4994412047      143.9145799309       54.7967714584
  C         3.5413809028      145.4574683032       54.5569651644
  C         4.5654547835      146.0861130257       55.5725011729
  C         4.6438488834      147.6219310208       55.4836736338
  C         5.9764364814       -2.1351697712       55.6993015561
  C         5.7540564401       -0.7926030818       56.4801069745
  C         7.0334518534       -0.1152064105       57.1095479452
  C         7.0877183071        1.5075360129       57.0337284709
  C         5.7185239139        2.2307590633       56.7542356698
  C         5.6994685330        3.5799533039       56.2969447474
  C         6.9622877754        4.2977573643       55.9539979364
  C         6.9639085482        5.8281310150       55.9636964052
  C         5.7161996572        6.3649649254       55.2344115592
  C         5.6539258871        7.8364828135       55.0444486969
  C         6.8673015776        8.5476862488       54.9202834737
  C         6.8991321982       10.0191528012       54.7665587559
  C         5.6819363722       10.7012276049       54.7473335798
  C         5.6126393550       12.0755022268       54.1560824390
  C         6.7874724777       12.7799548921       53.8315913151
  C         6.7571516926       14.3255541873       53.7675576234
  C         5.6821359334       14.9256671985       54.6751612183
  C         5.7528103289       16.4095125989       54.8192987997
  C         6.9124072248       17.2072940106       54.2680008499
  C         6.8146258061       18.7112721530       54.3603781383
  C         5.6721005456       19.3024856019       54.9269610698
  C         5.7887486593       20.6968441741       55.4887273043
  C         7.0144091186       21.3842594084       55.4756779158
  C         6.9901436018       22.8838601304       55.5534558887
  C         5.8358992125       23.5360287151       56.3538040049
  C         5.6952353354       25.0247881203       55.8761567804
  C         7.0353486272       25.7578870460       56.1014500361
  C         7.0015212924       27.2471502431       56.0311106191
  C         5.7720508516       27.9540487480       56.1334288514
  C         5.7618456979       29.3578974391       56.2512936518
  C         6.9909802845       30.0515551960       56.2208522825
  C         6.9760871977       31.4559318580       56.3518983375
  C         5.7651318166       32.1519460328       56.6037520075
  C         5.7667343745       33.5585174905       56.8029463613
  C         6.9570188998       34.2886389853       56.6170892382
  C         6.9368337138       35.7245863856       56.7061842465
  C         5.7298846295       36.4549961931       56.8219244275
  C         5.6746977203       37.8797761809       56.7201403442
  C         6.8868180935       38.6058013472       56.7080239473
  C         6.8704040916       40.0468312647       56.7517919437