   13122
 i =     5000, E =       379.1450302440
  C        -2.4234597328       -2.8339092823       49.4678399797
  C        -2.4218765278       -1.4244689043       49.3578080193
  C        -1.1952636604       -0.7282832402       49.3518454337
  C        -1.1924894884        0.6681242408       49.1274676939
  C        -2.4184771341        1.3847683925       48.9962582964
  C        -2.4279479970        2.7814999266       48.7459236158
  C        -1.1552510278        3.4771922651       48.4157449117
  C        -1.1258420913        4.8620978676       48.2586599805
  C        -2.3981794694        5.6774483549       48.3320173197
  C        -2.3302231427        7.0848491004       48.4316407308
  C        -0.9783806794        7.8072250691       48.4929765228
  C        -0.9562049369        9.2136559417       48.4389904528
  C        -2.3287007501        9.9245701493       48.2747692837
  C        -2.2155183589       11.4070583423       48.6236854880
  C        -0.8387617848       12.0917304473       48.7544849943
  C        -0.8993387875       13.5715981580       48.3082627188
  C        -2.1538282862       14.3998347561       48.6388872739
  C        -2.1873422663       15.6926447203       47.7412147699
  C        -0.8651820186       16.4635669069       48.0059342816
  C        -0.8449927724       17.8744486016       48.0148076401
  C        -2.1139896170       18.5936039400       47.5932311317
  C        -2.1274828821       20.0877880523       47.8734517849
  C        -0.9000944645       20.7700187812       47.8806737596
  C        -0.9174555956       22.2417545250       47.4697007810
  C        -2.2021946578       23.0365289652       47.6178560644
  C        -2.1083644513       24.4931659299       48.0324569958
  C        -0.8933108472       25.1988282288       47.8892484927
  C        -0.8548758230       26.7238902722       47.9023505831
  C        -2.1059855807       27.4688552167       47.4792020122
  C        -2.1227595192       28.8823985931       47.2738289290
  C        -0.9007050882       29.6781467612       47.8002039186
  C        -0.8999185233       31.1449706544       47.3435255794
  C        -2.2211539391       31.8776347991       47.5730069457
  C        -2.2447068642       33.3942087711       47.4095199550
  C        -0.9325192770       34.1280018014       47.0624263410
  C        -1.0050803479       35.6112022663       47.4980440572
  C        -2.1646593124       36.4201534263       46.9332553100
  C        -2.1927043222       37.8131261798       47.6484317738
  C        -0.9803393794       38.6907306553       47.3292657759
  C        -1.0638969715       40.1021935752       47.9960498341
  C        -2.2468207425       40.6899367233       48.5388150590
  C        -2.3398871831       42.1654797734       49.0339722856
  C        -0.9950253207       42.6622063543       49.5355264887
  C        -0.9574189303       44.1274813001       49.9324204155
  C        -2.1622035173       44.8002547446       50.2101961521
  C        -2.2099261116       46.2694428024       49.9201536969
  C        -0.9951958926       46.9828983211       49.7152251131
  C        -1.0057648405       48.3905605614       49.6110705817
  C        -2.2384671715       49.0818431864       49.5980189594
  C        -2.2412470235       50.4970902609       49.5388389444
  C        -1.0173397242       51.2141106774       49.5216386329
  C        -1.0206065934       52.6299161650       49.4948963629
  C        -2.2493469874       53.3328794178       49.4770675528
  C        -2.2520440184       54.7514904997       49.4532297827
  C        -1.0281845035       55.4653282106       49.4435034578
  C        -1.0320421237       56.8839421068       49.4167026192
  C        -2.2580393997       57.5943190410       49.4060369361
  C        -2.2614406336       59.0148623789       49.3819276587
  C        -1.0394279947       59.7273313205       49.3598149874
  C        -1.0465154910       61.1480395677       49.3293642045
  C        -2.2696259773       61.8650445350       49.3309722813
  C        -2.2783451978       63.2874392581       49.3036864451
  C        -1.0601648970       63.9988885824       49.2612661818
  C        -1.0723026498       65.4211576471       49.2226202178
  C        -2.2926924086       66.1435003178       49.2398312793
  C        -2.3038850241       67.5668786621       49.2028919004
  C        -1.0886187460       68.2778505712       49.1303888578
  C        -1.0994623507       69.7013363844       49.0802324013
  C        -2.3152094020       70.4271459921       49.1210958177
  C        -2.3196142266       71.8516275956       49.0809929822
  C        -1.1032428340       72.5635062995       48.9841326220
  C        -1.0982527084       73.9880876943       48.9439771219
  C        -2.3142617151       74.7095025102       49.0125155880
  C        -2.3072361537       76.1322016017       48.9889068025
  C        -1.0797688833       76.8405435569       48.8931866744
  C        -1.0675419923       78.2614124095       48.8797393042
  C        -2.2887092281       78.9725583808       48.9808124405
  C        -2.2751593964       80.3897238001       48.9841244214
  C        -1.0619970046       81.1039561779       48.7879122428
  C        -1.0837198265       82.5892573031       48.6003739798
  C        -2.2594352654       83.3169351671       49.2162103805
  C        -2.2944053120       84.7180888027       49.3490742358
  C        -1.2053453527       85.5435007243       48.6590803355
  C        -1.1051606504       86.8677815070       49.3829576735
  C        -2.3716248460       87.6355121098       49.5737377598
  C        -2.3215180600       89.0348549709       48.9686786126
  C        -1.0094374842       89.7842076163       49.4438214918
  C        -0.9964410380       91.2776141475       49.1013516790
  C        -2.3691988975       92.0040010876       49.0583826210
  C        -2.3576565239       93.4522758844       49.5870891156
  C        -1.0884979425       94.2141109624       49.9639781520
  C        -1.0531275547       95.5663873496       49.2337635508
  C        -2.3272293412       96.4347738361       49.1957968305
  C        -2.1964158359       97.7349299833       48.3365488114
  C        -0.9908807659       98.4649107730       48.5113090818
  C        -0.9766752758       99.9661763771       48.6387066400
  C        -2.3246643079      100.6004770138       48.6307331187
  C        -2.2983527147      102.1030235024       48.7514490053
  C        -1.1241537896      102.8356295818       48.9582349350
  C        -1.0498472293      104.3267744473       48.7478435058
  C        -2.3923754717      105.0108226571       48.7463502146
  C        -2.3328902892      106.4785542760       48.5083352965
  C        -1.0921844590      107.1647599982       48.5125734456
  C        -1.0922014329      108.5782478623       48.4602700536
  C        -2.3214583008      109.2902466605       48.4507676751
  C        -2.3277933862      110.7002729179       48.4953961047
  C        -1.0990048433      111.4013359690       48.5001832336
  C        -1.1066653743      112.8141535827       48.5394700440
  C        -2.3379962445      113.5168426153       48.5967980966
  C        -2.3445781184      114.9294446530       48.6475056979
  C        -1.1188501093      115.6373229397       48.6323612534
  C        -1.1264953656      117.0511500049       48.6837445639
  C        -2.3559141381      117.7538445540       48.7487547043
  C        -2.3625500192      119.1681244140       48.8003258379
  C        -1.1390018642      119.8787564051       48.7931600360
  C        -1.1461153620      121.2934688895       48.8501057863
  C        -2.3739319127      121.9974659575       48.9051452975
  C        -2.3802472074      123.4125521448       48.9581786956
  C        -1.1580321520      124.1242123264       48.9660757106
  C        -1.1645607429      125.5393006927       49.0245927737
  C        -2.3910366640      126.2445478041       49.0646965447
  C        -2.3967026252      127.6599079824       49.1179604605
  C        -1.1753754724      128.3715761811       49.1427948631
  C        -1.1805989826      129.7865976418       49.2020641767
  C        -2.4057593151      130.4929519340       49.2242399990
  C        -2.4100288458      131.9081811152       49.2766198495
  C        -1.1888487087      132.6187312076       49.3205040967
  C        -1.1925072125      134.0333174350       49.3789794002
  C        -2.4166757838      134.7408054732       49.3787735348
  C        -2.4197701890      136.1557138229       49.4270349460
  C        -1.1986490112      136.8643153707       49.4926436030
  C        -1.2014966209      138.2786479953       49.5450889605
  C        -2.4243218654      138.9874839639       49.5131796213
  C        -2.4262707538      140.4022659272       49.5464834099
  C        -1.2054637071      141.1089988332       49.6315116622
  C        -1.2067631815      142.5234118298       49.6575102610
  C        -2.4276091953      143.2328514326       49.5801223434
  C        -2.4278645578      144.6471047218       49.5702200341
  C        -1.2062203854      145.3518351273       49.6508270652
  C        -1.2049339942      146.7645308916       49.5998062653
  C         0.0163317730       -2.8383123443       49.6899012636
  C         0.0197577750       -1.4301404812       49.5686997909
  C         1.2390040868       -0.7257888009       49.6882947527
  C         1.2417863177        0.6763850797       49.5026195667
  C         0.0464697309        1.3456807315       49.1248885165
  C         0.0730145942        2.7238412252       48.8031887559
  C         1.3000160567        3.4212729757       48.8284410490
  C         1.3121572616        4.9115843504       48.9079652544
  C         0.1493597091        5.5988841277       48.5723995857
  C         0.2316889589        7.0118895009       48.0039540733
  C         1.5028169664        7.7785803507       48.3748904068
  C         1.6297437988        9.1766438108       47.7636850861
  C         0.2747694811        9.9559768904       47.8914018839
  C         0.3117837829       11.3651878647       48.0197375817
  C         1.6503161040       12.1215866093       47.9685682923
  C         1.6407892763       13.5952395423       48.4076866620
  C         0.3716713522       14.2943874671       47.9243100580
  C         0.4190430240       15.6886148238       47.7291619384
  C         1.7130797835       16.4569537614       47.8486685153
  C         1.7156664091       17.8482279463       47.9324986169
  C         0.4579476689       18.6254074994       47.7258148871
  C         0.4172990508       20.0352897481       47.7120764921
  C         1.6276050493       20.8231487931       48.1742033621
  C         1.4777202217       22.3836692403       48.1741242164
  C         0.2933477803       22.9645158768       47.3499157546
  C         0.2726509747       24.5187414712       47.1711990715
  C         1.5717519449       25.2628819332       47.5461616992
  C         1.6240522268       26.7622159565       47.2675626847
  C         0.3438464940       27.4457393171       47.7357569036
  C         0.3573565638       28.9121020166       47.4309474507
  C         1.6913103407       29.6525496258       47.2425654511
  C         1.6183453005       31.1197517862       47.6946013258
  C         0.3205151721       31.8553634387       47.3468045623
  C         0.2837163977       33.3654547099       47.6067903383
  C         1.4856479432       34.0798633748       47.7487288009
  C         1.5167910968       35.5761255653       47.5621091219
  C         0.2619582813       36.3771433409       47.9393038215
  C         0.3482778916       37.8996757120       47.5137987621
  C         1.5371970705       38.5596694633       47.8674575866
  C         1.4725424143       40.0029651174       48.3005031361
  C         0.2610980678       40.7288137524       48.3415801410
  C         0.1767973616       42.0266262512       49.1035461499
  C         1.4502618169       42.7848584804       49.0785894232
  C         1.4671349386       44.1856666155       49.2992747821
  C         0.2652460415       44.8783538107       49.5751059500
  C         0.2420028033       46.2893472198       49.5926541314
  C         1.4569218735       46.9970485989       49.4876651877
  C         1.4495255799       48.4060858458       49.5208457575
  C         0.2178587022       49.1029797028       49.5481896248
  C         0.2138075580       50.5154257245       49.5305604433
  C         1.4407457492       51.2236484382       49.5291968271
  C         1.4347019945       52.6372490511       49.5102360796
  C         0.2046557532       53.3416825008       49.4877507534
  C         0.1997650364       54.7580061590       49.4596029931
  C         1.4251552522       55.4665247794       49.4435982657
  C         1.4191511872       56.8835950632       49.4070610735
  C         0.1919690307       57.5948136001       49.3972181213
  C         0.1861852459       59.0137434956       49.3641030534
  C         1.4097135389       59.7222699392       49.3287863358
  C         1.3995119441       61.1415802520       49.2841723635
  C         0.1741779330       61.8583145219       49.2896717948
  C         0.1625597336       63.2791977988       49.2480660318
  C         1.3807918677       63.9878320440       49.1787575334
  C         1.3649187376       65.4089510371       49.1215048772
  C         0.1438258481       66.1310755521       49.1521430634
  C         0.1296426193       67.5530394232       49.0960799771
  C         1.3419422382       68.2615322060       48.9840197514
  C         1.3248332360       69.6823897167       48.9040665629
  C         0.1127573441       70.4114600475       48.9704752830
  C         0.1071684063       71.8357261212       48.9150700102
  C         1.3172309996       72.5452130260       48.7732060294
  C         1.3281003149       73.9702132207       48.7290722864
  C         0.1219174214       74.6990397824       48.8292939883
  C         0.1378723051       76.1236840849       48.8042942022
  C         1.3640385814       76.8366479029       48.6991067979
  C         1.3804642465       78.2692680351       48.6598096837
  C         0.1567224302       78.9749786518       48.7522599383
  C         0.1590288439       80.3945341455       48.6782913518
  C         1.3772200254       81.1207419807       48.5034813147
  C         1.3800281416       82.5387224819       48.4221603689
  C         0.0942992006       83.3012456822       48.3403049528
  C         0.1397054020       84.8249080182       48.4633132835
  C         1.3878366173       85.4415811482       48.6745686979
  C         1.5024908420       86.7811795328       49.3974390186
  C         0.2235451413       87.5503784861       49.7111988367
  C         0.2363176674       88.9551651787       48.9635941657
  C         1.5501908106       89.7506286953       49.0299359930
  C         1.4986024091       91.2582870616       49.2305391165
  C         0.2364061547       92.0133877314       49.5467804040
  C         0.2217993280       93.3982125228       49.8299455058
  C         1.5206138100       94.1949418373       49.7911375761
  C         1.5187959883       95.5885467868       49.5305451856
  C         0.2809695928       96.2219848549       48.8849560363
  C         0.2066282762       97.7701527340       49.1044969071
  C         1.3518684554       98.5488066462       49.4034534379
  C         1.4070709345      100.0334382763       49.1210574074
  C         0.2116322261      100.7244860809       48.8570253424
  C         0.1863393200      102.1459137126       48.8891752323
  C         1.3949948029      102.8866703142       48.8582824521
  C         1.3870075300      104.3114201847       48.7502309662
  C         0.1645734639      105.0317412493       48.6873668356
  C         0.1418886683      106.4487239008       48.5844556675
  C         1.3721857891      107.1525257535       48.5407321773
  C         1.3678442433      108.5685042903       48.4763079456
  C         0.1378363491      109.2784389994       48.4658037628
  C         0.1313957208      110.6936678535       48.4671853323
  C         1.3583430089      111.3991498532       48.4470201449
  C         1.3499625825      112.8145308070       48.4658276232
  C         0.1197637965      113.5199428184       48.5235947953
  C         0.1112520142      114.9339771816       48.5660325520
  C         1.3358503289      115.6424450539       48.5428773700
  C         1.3265459623      117.0569958116       48.5956166105
  C         0.0976077431      117.7607105953       48.6694981586
  C         0.0893943339      119.1751849165       48.7276975498
  C         1.3120690367      119.8862312406       48.7186954332
  C         1.3039698902      121.3011100272       48.7847643778
  C         0.0763976577      122.0049717144       48.8503683267
  C         0.0691256995      123.4198778599       48.9132907025
  C         1.2905875887      124.1324575578       48.9197659501
  C         1.2833055467      125.5473505979       48.9888534467
  C         0.0568085119      126.2514839508       49.0411243308
  C         0.0504554166      127.6663590127       49.1061675507
  C         1.2710539175      128.3790579052       49.1320554856
  C         1.2655591121      129.7933859116       49.2052404398
  C         0.0403036750      130.4982051149       49.2382649414
  C         0.0359379023      131.9125992833       49.3046353871
  C         1.2567814556      132.6236596381       49.3539277146
  C         1.2532123509      134.0370697816       49.4292025884
  C         0.0285659128      134.7429816455       49.4381121130
  C         0.0251688390      136.1567708712       49.5044352039
  C         1.2458657693      136.8651218782       49.5833488918
  C         1.2420356630      138.2781342431       49.6601739197
  C         0.0189518287      138.9861505089       49.6318940696
  C         0.0163175702      140.4000760752       49.6874561172
  C         1.2353696587      141.1065125804       49.8016126827
  C         1.2329497464      142.5204083826       49.8567744054
  C         0.0130248555      143.2294158141       49.7647800688
  C         0.0123656811      144.6436979743       49.7734897690
  C         1.2299741913      145.3497037688       49.9079814537
  C         1.2298067946      146.7640923081       49.8864126290
  C         2.4442360021       -2.8365449681       50.0539984001
  C         2.4479820460       -1.4233206811       49.9843498533
  C         3.6774619517       -0.7314923851       50.1450197048
  C         3.7060155761        0.6559492953       49.9093738716
  C         2.4900813415        1.4640528130       49.6937161374
  C         2.5533217122        2.7918518876       49.2798390563
  C         3.8967113023        3.3920352955       48.8617070400
  C         3.8899876654        4.8551810334       48.3469894012
  C         2.6481205461        5.5865212854       48.8355243055
  C         2.6678102102        7.0906746376       49.0984233561
  C         3.9872817885        7.8155074015       48.7681595326
  C         3.9177226661        9.3207108201       49.1186621299
  C         2.8085868020        9.9867028531       48.3091377765
  C         2.8808544584       11.4415501031       48.0109160609
  C         4.1979922932       12.1726261632       48.2776941525
  C         4.1464102695       13.6289577150       48.4897166420
  C         2.9398062457       14.3000470104       47.9965347852
  C         2.9869403470       15.6684359426       47.7705918034
  C         4.3363217346       16.4463881156       47.8797853043
  C         4.1994379577       17.9349088031       48.2831152980
  C         2.9546796210       18.6090311576       48.2581327954
  C         2.8618124167       20.1302220478       48.2941225540
  C         4.1520673329       20.9183001884       48.0291465646
  C         4.0078526064       22.3749458918       48.5244631060
  C         2.8238152119       23.1175369141       47.8630687494
  C         2.7059911538       24.5948779436       48.2475402113
  C         3.8905632104       25.2729055316       48.5785038589
  C         4.0732550236       26.6457611225       47.9817072576
  C         2.8241868129       27.4793980094       47.9002599445
  C         2.8624850843       28.8922051473       47.9049543736
  C         4.1767351453       29.6167772644       47.9426811894
  C         4.1616043277       31.0875719182       47.5865076281
  C         2.8335458289       31.8316936864       47.7761472988
  C         2.7819038996       33.3166499659       47.3421137844
  C         4.0666221542       34.0261239030       47.7656177092
  C         3.9632533949       35.4598451256       48.3139293543
  C         2.8572821916       36.3163304362       47.6103506070
  C         2.7360141340       37.7219535739       48.2910604815
  C         3.8743890281       38.3977939789       48.7590956650
  C         3.8132597803       39.9007837203       48.9016788522
  C         2.6375584051       40.6654486751       48.7477024943
  C         2.6597453994       42.0728164864       48.9836076533
  C         3.8821474245       42.7471127271       49.1943026553
  C         3.8911563717       44.1589189355       49.3520094494
  C         2.6836865381       44.8840893047       49.3246099447
  C         2.6812022968       46.2917081737       49.4320825298
  C         3.9037556614       46.9897375630       49.5069600592
  C         3.9021241061       48.4011073537       49.5615553401
  C         2.6758447917       49.1093306946       49.5360609802
  C         2.6721846093       50.5208041539       49.5562425609
  C         3.9010983247       51.2223828099       49.5935348124
  C         3.8922330600       52.6352206416       49.5461975731
  C         2.6616578579       53.3423732757       49.5056471543
  C         2.6537232056       54.7569922449       49.4625760571
  C         3.8799477134       55.4599697160       49.4310148475
  C         3.8716121394       56.8750512509       49.3780665982
  C         2.6444532791       57.5896961107       49.3742215152
  C         2.6369472263       59.0075761674       49.3294447659
  C         3.8621873789       59.7112108533       49.2756897497
  C         3.8478835183       61.1312071047       49.2141511875
  C         2.6208121660       61.8485004259       49.2216080136
  C         2.6049840317       63.2678493358       49.1540670473
  C         3.8207088674       63.9738932072       49.0389038585
  C         3.7978721678       65.3921414662       48.9486083379
  C         2.5784621803       66.1166982070       49.0094279445
  C         2.5606104280       67.5377778752       48.9301795299
  C         3.7682811931       68.2442560214       48.7664760278
  C         3.7424432528       69.6657531203       48.6580074287
  C         2.5285145861       70.3889173780       48.7341471875
  C         2.5153393605       71.8090554606       48.6552287902
  C         3.7102190005       72.5072238965       48.4254277038
  C         3.7504869039       73.9333476921       48.4674911891
  C         2.5476728448       74.6767038400       48.6099033199
  C         2.5781123480       76.1114406477       48.6281330131
  C         3.8815347330       76.8586320709       48.5967426120
  C         3.8061465230       78.3324582049       48.3319587600
  C         2.5887217117       79.0133702038       48.4751369049
  C         2.6028780160       80.4297312292       48.4077758839
  C         3.8262605372       81.1530876529       48.2470735293
  C         3.8481747287       82.5663239535       48.2980615621
  C         2.6161918353       83.2332169718       48.4447414740
  C         2.6284782392       84.6398628186       48.5763666068
  C         3.8392604561       85.4923861466       48.3211920573
  C         3.8934821792       86.8608706731       48.6527210021
  C         2.7172171017       87.4936523232       49.3012726671
  C         2.7365400418       89.0234615931       49.2013196733
  C         4.0253339943       89.7535061950       49.5965384220
  C         4.0265128454       91.2796895489       49.2985857410
  C         2.8119645211       91.9860094241       49.2099685887
  C         2.8093302242       93.4338891597       49.6190607492
  C         4.0918519758       94.2040204193       49.3125680334
  C         3.9798968078       95.6574216134       49.7838760805
  C         2.7861816537       96.4082545619       49.2114670033
  C         2.6657060280       97.8743748519       49.6649811318
  C         3.8434918922       98.6201936057       49.7102919172
  C         3.8407552187      100.0919963505       49.3399486774
  C         2.6195411568      100.7819830444       49.1476178782
  C         2.6202407575      102.1898817520       48.9367445417
  C         3.8371080984      102.9139974870       48.8618846081
  C         3.8411153161      104.3252789363       48.7061030255
  C         2.6102430810      105.0275776687       48.6743691307
  C         2.6043113426      106.4438052539       48.5654269219
  C         3.8327757581      107.1523491150       48.4807789154
  C         3.8271855344      108.5691004562       48.4121507552
  C         2.5956723931      109.2754076289       48.4318343164
  C         2.5886808775      110.6921600317       48.4086759331
  C         3.8139001535      111.4016694925       48.3540995963
  C         3.8049220454      112.8181806415       48.3596492476
  C         2.5748983529      113.5228527875       48.4304758961
  C         2.5652990657      114.9381368291       48.4662899176
  C         3.7885919825      115.6482082883       48.4264901665
  C         3.7775943428      117.0632061651       48.4822986617
  C         2.5494810784      117.7673261115       48.5736343045
  C         2.5396523911      119.1822513785       48.6394735886
  C         3.7606684211      119.8946454140       48.6208193935
  C         3.7520209833      121.3101999919       48.6960389911
  C         2.5254406856      122.0138296443       48.7800708022
  C         2.5174034212      123.4290227577       48.8514482392
  C         3.7373015835      124.1441127733       48.8443562712
  C         3.7297308202      125.5592323431       48.9244352041
  C         2.5036730379      126.2612139843       49.0005710226
  C         2.4967937569      127.6756395663       49.0793005697
  C         3.7161803678      128.3906229170       49.0996901986
  C         3.7109453781      129.8039120566       49.1905564150
  C         2.4858011515      130.5061998369       49.2423913932
  C         2.4818313168      131.9194833346       49.3248997279
  C         3.7025486928      132.6313394254       49.3748413675
  C         3.6996505824      134.0430100153       49.4687483306
  C         2.4742477639      134.7467895990       49.4942580701
  C         2.4704038688      136.1589132822       49.5826040217
  C         3.6911556559      136.8664194763       49.6694472949
  C         3.6851327389      138.2771754876       49.7784252837
  C         2.4614383785      138.9848797529       49.7665010651
  C         2.4569853754      140.3974717322       49.8551408270
  C         3.6738135500      141.1024893741       49.9984700698
  C         3.6691732247      142.5152941394       50.0958617416
  C         2.4496211288      143.2259351298       50.0045934617
  C         2.4464368466      144.6405692776       50.0510996893
  C         3.6594264395      145.3454797796       50.2350473907
  C         3.6562693631      146.7619566790       50.2570804199
  C         4.8683725140       -2.8415973314       50.4667420737
  C         4.8813180178       -1.4256986043       50.4408013526
  C         6.0855662061       -0.7029406821       50.6847642543
  C         6.1085800085        0.8039155164       50.6513139549
  C         4.9148320861        1.3586884025       49.9723509956
  C         5.0328323320        2.7490588856       49.4037570357
  C         6.2253156206        3.6074337507       49.8095352142
  C         6.3207053527        4.9349748296       49.3549777916
  C         5.1938807125        5.6055465867       48.6491597501
  C         5.1913813667        7.1010305163       48.6560779659
  C         6.4800234732        7.7937255703       49.1613274891
  C         6.5404489512        9.2982464514       48.7734817428
  C         5.2481364010       10.0164407660       48.9074112133
  C         5.3163277682       11.4773306404       48.7173656701
  C         6.4573599714       12.1666930663       49.4325156575
  C         6.4128526614       13.5607355990       49.6477282614
  C         5.1220039655       14.3839535683       49.3625897701
  C         5.4014610150       15.7601626842       48.7683820821
  C         6.4080175266       16.6029334417       49.5581479343
  C         6.7148078932       17.9764523699       48.9026682310
  C         5.5399142507       18.7040571173       48.1837977822
  C         5.3654564024       20.1702301656       48.5922833761
  C         6.4005349449       20.8919280079       49.4524955562
  C         6.4963733640       22.4289478982       49.0987510968
  C         5.0969790165       23.0789162453       49.0463160785
  C         5.1610758821       24.5668070218       48.8851139520
  C         6.3336165738       25.2935325260       49.1290268171
  C         6.4149463450       26.7689801730       48.8033950392
  C         5.3089403447       27.3101922223       47.9087057862
  C         5.3603148731       28.7949375941       47.4523279888
  C         6.7053421275       29.5136451199       47.7133277367
  C         6.6795866033       31.0441878313       47.9500658479
  C         5.3943803831       31.8025774119       47.5273609450
  C         5.4351852797       33.3597114293       47.4693720082
  C         6.5986645738       33.9630349479       48.2923193009
  C         6.4374234813       35.3374960377       48.9738349596
  C         5.3512784397       36.2051127759       48.2083401341
  C         5.2954754463       37.7878579556       48.5334365002
  C         6.2955573208       38.2430356735       49.6188388551
  C         6.1652437954       39.7472693805       49.9592647832